<?xml version="1.0" encoding="UTF-8"?>

<!-- generated on Mon Dec  4 16:00:08 2017 by SUMO Version dev-SVN-r26021
<?xml version="1.0" encoding="UTF-8"?>

<configuration xmlns:xsi="http://www.w3.org/2001/XMLSchema-instance" xsi:noNamespaceSchemaLocation="http://sumo.dlr.de/xsd/sumoConfiguration.xsd">

    <input>
        <net-file value="scenarios/3_cross/randersvej.net.xml"/>
        <route-files value="/tmp/tmp5plhl2ir"/>
        <additional-files value="scenarios/3_cross/randersvej.det.xml,scenarios/3_cross/time_loss.tls.xml"/>
    </input>

    <output>
        <tripinfo-output value="/tmp/tmp_h9_zv84"/>
    </output>

    <time>
        <begin value="0"/>
    </time>

    <processing>
        <time-to-teleport value="300"/>
    </processing>

    <report>
        <verbose value="true"/>
        <xml-validation value="never"/>
        <no-step-log value="true"/>
    </report>

    <traci_server>
        <remote-port value="53095"/>
    </traci_server>

    <gui_only>
        <gui-settings-file value="scenarios/3_cross/gui.settings.xml"/>
        <quit-on-end value="true"/>
        <start value="true"/>
    </gui_only>

</configuration>
-->

<detector xmlns:xsi="http://www.w3.org/2001/XMLSchema-instance" xsi:noNamespaceSchemaLocation="http://sumo.dlr.de/xsd/det_e2_file.xsd">
</detector>
