<?xml version="1.0" encoding="UTF-8"?>

<!-- generated on Fri Sep  8 16:53:51 2017 by SUMO gui Version 0.30.0
<?xml version="1.0" encoding="UTF-8"?>

<configuration xmlns:xsi="http://www.w3.org/2001/XMLSchema-instance" xsi:noNamespaceSchemaLocation="http://sumo.dlr.de/xsd/sumoConfiguration.xsd">

    <input>
        <net-file value="data/cross.net.xml"/>
        <route-files value="data/cross.rou.xml"/>
        <additional-files value="data/cross1.det.xml"/>
    </input>

    <output>
        <tripinfo-output value="tripinfo.xml"/>
    </output>

    <time>
        <begin value="0"/>
    </time>

    <report>
        <verbose value="true"/>
        <no-step-log value="true"/>
    </report>

    <traci_server>
        <remote-port value="51018"/>
    </traci_server>

    <gui_only>
        <gui-settings-file value="data/gui.settings.xml"/>
        <start value="true"/>
    </gui_only>

</configuration>
-->

<detector xmlns:xsi="http://www.w3.org/2001/XMLSchema-instance" xsi:noNamespaceSchemaLocation="http://sumo.dlr.de/xsd/det_e1_file.xsd">
    <interval begin="0.00" end="30.00" id="i0" nVehContrib="0" flow="0.00" occupancy="0.00" speed="-1.00" length="-1.00" nVehEntered="0"/>
    <interval begin="0.00" end="30.00" id="i1" nVehContrib="0" flow="0.00" occupancy="0.00" speed="-1.00" length="-1.00" nVehEntered="0"/>
    <interval begin="0.00" end="30.00" id="i2" nVehContrib="0" flow="0.00" occupancy="0.00" speed="-1.00" length="-1.00" nVehEntered="0"/>
    <interval begin="0.00" end="30.00" id="i3" nVehContrib="0" flow="0.00" occupancy="0.00" speed="-1.00" length="-1.00" nVehEntered="0"/>
    <interval begin="0.00" end="30.00" id="o0" nVehContrib="0" flow="0.00" occupancy="0.00" speed="-1.00" length="-1.00" nVehEntered="0"/>
    <interval begin="0.00" end="30.00" id="o1" nVehContrib="0" flow="0.00" occupancy="0.00" speed="-1.00" length="-1.00" nVehEntered="0"/>
    <interval begin="0.00" end="30.00" id="o2" nVehContrib="0" flow="0.00" occupancy="0.00" speed="-1.00" length="-1.00" nVehEntered="0"/>
    <interval begin="0.00" end="30.00" id="o3" nVehContrib="0" flow="0.00" occupancy="0.00" speed="-1.00" length="-1.00" nVehEntered="0"/>
    <interval begin="30.00" end="60.00" id="i0" nVehContrib="0" flow="0.00" occupancy="0.00" speed="-1.00" length="-1.00" nVehEntered="0"/>
    <interval begin="30.00" end="60.00" id="i1" nVehContrib="1" flow="120.00" occupancy="1.02" speed="16.37" length="5.00" nVehEntered="1"/>
    <interval begin="30.00" end="60.00" id="i2" nVehContrib="2" flow="240.00" occupancy="2.01" speed="16.60" length="5.00" nVehEntered="2"/>
    <interval begin="30.00" end="60.00" id="i3" nVehContrib="2" flow="240.00" occupancy="2.03" speed="16.43" length="5.00" nVehEntered="2"/>
    <interval begin="30.00" end="60.00" id="o0" nVehContrib="0" flow="0.00" occupancy="0.00" speed="-1.00" length="-1.00" nVehEntered="0"/>
    <interval begin="30.00" end="60.00" id="o1" nVehContrib="0" flow="0.00" occupancy="0.00" speed="-1.00" length="-1.00" nVehEntered="0"/>
    <interval begin="30.00" end="60.00" id="o2" nVehContrib="0" flow="0.00" occupancy="7.64" speed="-1.00" length="-1.00" nVehEntered="1"/>
    <interval begin="30.00" end="60.00" id="o3" nVehContrib="1" flow="120.00" occupancy="1.41" speed="11.80" length="5.00" nVehEntered="1"/>
    <interval begin="60.00" end="90.00" id="i0" nVehContrib="2" flow="240.00" occupancy="2.03" speed="16.45" length="5.00" nVehEntered="2"/>
    <interval begin="60.00" end="90.00" id="i1" nVehContrib="0" flow="0.00" occupancy="0.00" speed="-1.00" length="-1.00" nVehEntered="0"/>
    <interval begin="60.00" end="90.00" id="i2" nVehContrib="0" flow="0.00" occupancy="0.00" speed="-1.00" length="-1.00" nVehEntered="0"/>
    <interval begin="60.00" end="90.00" id="i3" nVehContrib="1" flow="120.00" occupancy="1.01" speed="16.44" length="5.00" nVehEntered="1"/>
    <interval begin="60.00" end="90.00" id="o0" nVehContrib="1" flow="120.00" occupancy="2.85" speed="5.85" length="5.00" nVehEntered="1"/>
    <interval begin="60.00" end="90.00" id="o1" nVehContrib="1" flow="120.00" occupancy="19.15" speed="0.87" length="5.00" nVehEntered="1"/>
    <interval begin="60.00" end="90.00" id="o2" nVehContrib="1" flow="120.00" occupancy="91.50" speed="1.42" length="5.00" nVehEntered="1"/>
    <interval begin="60.00" end="90.00" id="o3" nVehContrib="1" flow="120.00" occupancy="82.01" speed="0.58" length="5.00" nVehEntered="2"/>
    <interval begin="90.00" end="120.00" id="i0" nVehContrib="2" flow="240.00" occupancy="2.02" speed="16.53" length="5.00" nVehEntered="2"/>
    <interval begin="90.00" end="120.00" id="i1" nVehContrib="3" flow="360.00" occupancy="3.04" speed="16.46" length="5.00" nVehEntered="3"/>
    <interval begin="90.00" end="120.00" id="i2" nVehContrib="2" flow="240.00" occupancy="2.03" speed="16.40" length="5.00" nVehEntered="2"/>
    <interval begin="90.00" end="120.00" id="i3" nVehContrib="0" flow="0.00" occupancy="0.00" speed="-1.00" length="-1.00" nVehEntered="0"/>
    <interval begin="90.00" end="120.00" id="o0" nVehContrib="3" flow="360.00" occupancy="57.49" speed="2.26" length="5.00" nVehEntered="3"/>
    <interval begin="90.00" end="120.00" id="o1" nVehContrib="0" flow="0.00" occupancy="34.59" speed="-1.00" length="-1.00" nVehEntered="1"/>
    <interval begin="90.00" end="120.00" id="o2" nVehContrib="3" flow="360.00" occupancy="21.88" speed="2.60" length="5.00" nVehEntered="2"/>
    <interval begin="90.00" end="120.00" id="o3" nVehContrib="1" flow="120.00" occupancy="31.29" speed="0.20" length="5.00" nVehEntered="0"/>
    <interval begin="120.00" end="150.00" id="i0" nVehContrib="0" flow="0.00" occupancy="0.00" speed="-1.00" length="-1.00" nVehEntered="0"/>
    <interval begin="120.00" end="150.00" id="i1" nVehContrib="2" flow="240.00" occupancy="2.02" speed="16.49" length="5.00" nVehEntered="2"/>
    <interval begin="120.00" end="150.00" id="i2" nVehContrib="3" flow="360.00" occupancy="3.04" speed="16.43" length="5.00" nVehEntered="3"/>
    <interval begin="120.00" end="150.00" id="i3" nVehContrib="2" flow="240.00" occupancy="2.03" speed="16.45" length="5.00" nVehEntered="2"/>
    <interval begin="120.00" end="150.00" id="o0" nVehContrib="0" flow="0.00" occupancy="0.00" speed="-1.00" length="-1.00" nVehEntered="0"/>
    <interval begin="120.00" end="150.00" id="o1" nVehContrib="1" flow="120.00" occupancy="90.85" speed="0.27" length="5.00" nVehEntered="1"/>
    <interval begin="120.00" end="150.00" id="o2" nVehContrib="1" flow="120.00" occupancy="1.25" speed="13.37" length="5.00" nVehEntered="1"/>
    <interval begin="120.00" end="150.00" id="o3" nVehContrib="0" flow="0.00" occupancy="53.81" speed="-1.00" length="-1.00" nVehEntered="1"/>
    <interval begin="150.00" end="180.00" id="i0" nVehContrib="2" flow="240.00" occupancy="2.02" speed="16.50" length="5.00" nVehEntered="2"/>
    <interval begin="150.00" end="180.00" id="i1" nVehContrib="1" flow="120.00" occupancy="1.01" speed="16.50" length="5.00" nVehEntered="1"/>
    <interval begin="150.00" end="180.00" id="i2" nVehContrib="0" flow="0.00" occupancy="0.00" speed="-1.00" length="-1.00" nVehEntered="0"/>
    <interval begin="150.00" end="180.00" id="i3" nVehContrib="1" flow="120.00" occupancy="1.00" speed="16.61" length="5.00" nVehEntered="1"/>
    <interval begin="150.00" end="180.00" id="o0" nVehContrib="1" flow="120.00" occupancy="40.44" speed="0.41" length="5.00" nVehEntered="1"/>
    <interval begin="150.00" end="180.00" id="o1" nVehContrib="1" flow="120.00" occupancy="88.16" speed="0.14" length="5.00" nVehEntered="1"/>
    <interval begin="150.00" end="180.00" id="o2" nVehContrib="1" flow="120.00" occupancy="69.16" speed="0.25" length="5.00" nVehEntered="2"/>
    <interval begin="150.00" end="180.00" id="o3" nVehContrib="1" flow="120.00" occupancy="89.15" speed="0.15" length="5.00" nVehEntered="1"/>
    <interval begin="180.00" end="210.00" id="i0" nVehContrib="0" flow="0.00" occupancy="0.00" speed="-1.00" length="-1.00" nVehEntered="0"/>
    <interval begin="180.00" end="210.00" id="i1" nVehContrib="4" flow="480.00" occupancy="4.03" speed="16.53" length="5.00" nVehEntered="4"/>
    <interval begin="180.00" end="210.00" id="i2" nVehContrib="3" flow="360.00" occupancy="3.05" speed="16.42" length="5.00" nVehEntered="3"/>
    <interval begin="180.00" end="210.00" id="i3" nVehContrib="1" flow="120.00" occupancy="1.01" speed="16.43" length="5.00" nVehEntered="1"/>
    <interval begin="180.00" end="210.00" id="o0" nVehContrib="0" flow="0.00" occupancy="99.70" speed="-1.00" length="-1.00" nVehEntered="1"/>
    <interval begin="180.00" end="210.00" id="o1" nVehContrib="7" flow="840.00" occupancy="47.56" speed="4.86" length="5.00" nVehEntered="6"/>
    <interval begin="180.00" end="210.00" id="o2" nVehContrib="0" flow="0.00" occupancy="100.00" speed="-1.00" length="-1.00" nVehEntered="0"/>
    <interval begin="180.00" end="210.00" id="o3" nVehContrib="2" flow="240.00" occupancy="34.20" speed="1.33" length="5.00" nVehEntered="1"/>
    <interval begin="210.00" end="240.00" id="i0" nVehContrib="1" flow="120.00" occupancy="1.01" speed="16.43" length="5.00" nVehEntered="1"/>
    <interval begin="210.00" end="240.00" id="i1" nVehContrib="0" flow="0.00" occupancy="0.00" speed="-1.00" length="-1.00" nVehEntered="0"/>
    <interval begin="210.00" end="240.00" id="i2" nVehContrib="2" flow="240.00" occupancy="2.03" speed="16.42" length="5.00" nVehEntered="2"/>
    <interval begin="210.00" end="240.00" id="i3" nVehContrib="0" flow="0.00" occupancy="0.00" speed="-1.00" length="-1.00" nVehEntered="0"/>
    <interval begin="210.00" end="240.00" id="o0" nVehContrib="1" flow="120.00" occupancy="74.22" speed="0.10" length="5.00" nVehEntered="0"/>
    <interval begin="210.00" end="240.00" id="o1" nVehContrib="1" flow="120.00" occupancy="1.09" speed="15.28" length="5.00" nVehEntered="1"/>
    <interval begin="210.00" end="240.00" id="o2" nVehContrib="1" flow="120.00" occupancy="89.37" speed="0.09" length="5.00" nVehEntered="1"/>
    <interval begin="210.00" end="240.00" id="o3" nVehContrib="1" flow="120.00" occupancy="1.10" speed="15.15" length="5.00" nVehEntered="1"/>
    <interval begin="240.00" end="270.00" id="i0" nVehContrib="2" flow="240.00" occupancy="2.02" speed="16.52" length="5.00" nVehEntered="2"/>
    <interval begin="240.00" end="270.00" id="i1" nVehContrib="1" flow="120.00" occupancy="1.01" speed="16.55" length="5.00" nVehEntered="1"/>
    <interval begin="240.00" end="270.00" id="i2" nVehContrib="0" flow="0.00" occupancy="0.00" speed="-1.00" length="-1.00" nVehEntered="0"/>
    <interval begin="240.00" end="270.00" id="i3" nVehContrib="1" flow="120.00" occupancy="1.02" speed="16.38" length="5.00" nVehEntered="1"/>
    <interval begin="240.00" end="270.00" id="o0" nVehContrib="0" flow="0.00" occupancy="81.01" speed="-1.00" length="-1.00" nVehEntered="1"/>
    <interval begin="240.00" end="270.00" id="o1" nVehContrib="0" flow="0.00" occupancy="0.00" speed="-1.00" length="-1.00" nVehEntered="0"/>
    <interval begin="240.00" end="270.00" id="o2" nVehContrib="0" flow="0.00" occupancy="100.00" speed="-1.00" length="-1.00" nVehEntered="0"/>
    <interval begin="240.00" end="270.00" id="o3" nVehContrib="1" flow="120.00" occupancy="2.21" speed="7.56" length="5.00" nVehEntered="1"/>
    <interval begin="270.00" end="300.00" id="i0" nVehContrib="1" flow="120.00" occupancy="1.01" speed="16.49" length="5.00" nVehEntered="1"/>
    <interval begin="270.00" end="300.00" id="i1" nVehContrib="0" flow="0.00" occupancy="0.00" speed="-1.00" length="-1.00" nVehEntered="0"/>
    <interval begin="270.00" end="300.00" id="i2" nVehContrib="1" flow="120.00" occupancy="1.02" speed="16.27" length="5.00" nVehEntered="1"/>
    <interval begin="270.00" end="300.00" id="i3" nVehContrib="3" flow="360.00" occupancy="3.04" speed="16.47" length="5.00" nVehEntered="3"/>
    <interval begin="270.00" end="300.00" id="o0" nVehContrib="1" flow="120.00" occupancy="88.20" speed="0.19" length="5.00" nVehEntered="1"/>
    <interval begin="270.00" end="300.00" id="o1" nVehContrib="1" flow="120.00" occupancy="17.38" speed="0.96" length="5.00" nVehEntered="1"/>
    <interval begin="270.00" end="300.00" id="o2" nVehContrib="1" flow="120.00" occupancy="88.92" speed="0.14" length="5.00" nVehEntered="1"/>
    <interval begin="270.00" end="300.00" id="o3" nVehContrib="2" flow="240.00" occupancy="2.32" speed="14.41" length="5.00" nVehEntered="2"/>
    <interval begin="300.00" end="330.00" id="i0" nVehContrib="1" flow="120.00" occupancy="1.00" speed="16.63" length="5.00" nVehEntered="1"/>
    <interval begin="300.00" end="330.00" id="i1" nVehContrib="3" flow="360.00" occupancy="3.04" speed="16.45" length="5.00" nVehEntered="3"/>
    <interval begin="300.00" end="330.00" id="i2" nVehContrib="1" flow="120.00" occupancy="1.01" speed="16.56" length="5.00" nVehEntered="1"/>
    <interval begin="300.00" end="330.00" id="i3" nVehContrib="0" flow="0.00" occupancy="0.00" speed="-1.00" length="-1.00" nVehEntered="0"/>
    <interval begin="300.00" end="330.00" id="o0" nVehContrib="2" flow="240.00" occupancy="81.20" speed="0.29" length="5.00" nVehEntered="2"/>
    <interval begin="300.00" end="330.00" id="o1" nVehContrib="1" flow="120.00" occupancy="22.43" speed="11.80" length="5.00" nVehEntered="2"/>
    <interval begin="300.00" end="330.00" id="o2" nVehContrib="2" flow="240.00" occupancy="79.97" speed="0.29" length="5.00" nVehEntered="2"/>
    <interval begin="300.00" end="330.00" id="o3" nVehContrib="1" flow="120.00" occupancy="9.36" speed="1.78" length="5.00" nVehEntered="1"/>
    <interval begin="330.00" end="360.00" id="i0" nVehContrib="1" flow="120.00" occupancy="1.02" speed="16.37" length="5.00" nVehEntered="1"/>
    <interval begin="330.00" end="360.00" id="i1" nVehContrib="4" flow="480.00" occupancy="4.03" speed="16.53" length="5.00" nVehEntered="4"/>
    <interval begin="330.00" end="360.00" id="i2" nVehContrib="1" flow="120.00" occupancy="1.01" speed="16.47" length="5.00" nVehEntered="1"/>
    <interval begin="330.00" end="360.00" id="i3" nVehContrib="5" flow="600.00" occupancy="5.04" speed="16.53" length="5.00" nVehEntered="5"/>
    <interval begin="330.00" end="360.00" id="o0" nVehContrib="2" flow="240.00" occupancy="23.50" speed="1.44" length="5.00" nVehEntered="1"/>
    <interval begin="330.00" end="360.00" id="o1" nVehContrib="1" flow="120.00" occupancy="88.45" speed="0.15" length="5.00" nVehEntered="1"/>
    <interval begin="330.00" end="360.00" id="o2" nVehContrib="4" flow="480.00" occupancy="31.66" speed="2.84" length="5.00" nVehEntered="3"/>
    <interval begin="330.00" end="360.00" id="o3" nVehContrib="0" flow="0.00" occupancy="28.23" speed="-1.00" length="-1.00" nVehEntered="1"/>
    <interval begin="360.00" end="390.00" id="i0" nVehContrib="0" flow="0.00" occupancy="0.00" speed="-1.00" length="-1.00" nVehEntered="0"/>
    <interval begin="360.00" end="390.00" id="i1" nVehContrib="1" flow="120.00" occupancy="1.01" speed="16.49" length="5.00" nVehEntered="1"/>
    <interval begin="360.00" end="390.00" id="i2" nVehContrib="3" flow="360.00" occupancy="3.03" speed="16.51" length="5.00" nVehEntered="3"/>
    <interval begin="360.00" end="390.00" id="i3" nVehContrib="2" flow="240.00" occupancy="2.02" speed="16.51" length="5.00" nVehEntered="2"/>
    <interval begin="360.00" end="390.00" id="o0" nVehContrib="1" flow="120.00" occupancy="2.28" speed="7.30" length="5.00" nVehEntered="1"/>
    <interval begin="360.00" end="390.00" id="o1" nVehContrib="0" flow="0.00" occupancy="100.00" speed="-1.00" length="-1.00" nVehEntered="0"/>
    <interval begin="360.00" end="390.00" id="o2" nVehContrib="2" flow="240.00" occupancy="18.04" speed="7.97" length="5.00" nVehEntered="2"/>
    <interval begin="360.00" end="390.00" id="o3" nVehContrib="1" flow="120.00" occupancy="88.14" speed="0.19" length="5.00" nVehEntered="1"/>
    <interval begin="390.00" end="420.00" id="i0" nVehContrib="2" flow="240.00" occupancy="2.01" speed="16.55" length="5.00" nVehEntered="2"/>
    <interval begin="390.00" end="420.00" id="i1" nVehContrib="2" flow="240.00" occupancy="2.02" speed="16.47" length="5.00" nVehEntered="2"/>
    <interval begin="390.00" end="420.00" id="i2" nVehContrib="2" flow="240.00" occupancy="2.01" speed="16.57" length="5.00" nVehEntered="2"/>
    <interval begin="390.00" end="420.00" id="i3" nVehContrib="3" flow="360.00" occupancy="3.05" speed="16.38" length="5.00" nVehEntered="3"/>
    <interval begin="390.00" end="420.00" id="o0" nVehContrib="0" flow="0.00" occupancy="0.00" speed="-1.00" length="-1.00" nVehEntered="0"/>
    <interval begin="390.00" end="420.00" id="o1" nVehContrib="1" flow="120.00" occupancy="89.19" speed="0.13" length="5.00" nVehEntered="1"/>
    <interval begin="390.00" end="420.00" id="o2" nVehContrib="2" flow="240.00" occupancy="33.74" speed="4.91" length="5.00" nVehEntered="3"/>
    <interval begin="390.00" end="420.00" id="o3" nVehContrib="1" flow="120.00" occupancy="96.91" speed="0.13" length="5.00" nVehEntered="0"/>
    <interval begin="420.00" end="450.00" id="i0" nVehContrib="2" flow="240.00" occupancy="2.02" speed="16.52" length="5.00" nVehEntered="2"/>
    <interval begin="420.00" end="450.00" id="i1" nVehContrib="0" flow="0.00" occupancy="0.00" speed="-1.00" length="-1.00" nVehEntered="0"/>
    <interval begin="420.00" end="450.00" id="i2" nVehContrib="0" flow="0.00" occupancy="0.00" speed="-1.00" length="-1.00" nVehEntered="0"/>
    <interval begin="420.00" end="450.00" id="i3" nVehContrib="3" flow="360.00" occupancy="3.05" speed="16.39" length="5.00" nVehEntered="3"/>
    <interval begin="420.00" end="450.00" id="o0" nVehContrib="2" flow="240.00" occupancy="3.08" speed="11.40" length="5.00" nVehEntered="2"/>
    <interval begin="420.00" end="450.00" id="o1" nVehContrib="1" flow="120.00" occupancy="86.79" speed="0.13" length="5.00" nVehEntered="1"/>
    <interval begin="420.00" end="450.00" id="o2" nVehContrib="2" flow="240.00" occupancy="29.63" speed="1.64" length="5.00" nVehEntered="1"/>
    <interval begin="420.00" end="450.00" id="o3" nVehContrib="1" flow="120.00" occupancy="57.51" speed="0.29" length="5.00" nVehEntered="1"/>
    <interval begin="450.00" end="480.00" id="i0" nVehContrib="1" flow="120.00" occupancy="1.01" speed="16.51" length="5.00" nVehEntered="1"/>
    <interval begin="450.00" end="480.00" id="i1" nVehContrib="3" flow="360.00" occupancy="3.03" speed="16.49" length="5.00" nVehEntered="3"/>
    <interval begin="450.00" end="480.00" id="i2" nVehContrib="0" flow="0.00" occupancy="0.00" speed="-1.00" length="-1.00" nVehEntered="0"/>
    <interval begin="450.00" end="480.00" id="i3" nVehContrib="1" flow="120.00" occupancy="1.00" speed="16.59" length="5.00" nVehEntered="1"/>
    <interval begin="450.00" end="480.00" id="o0" nVehContrib="2" flow="240.00" occupancy="37.68" speed="7.08" length="5.00" nVehEntered="3"/>
    <interval begin="450.00" end="480.00" id="o1" nVehContrib="0" flow="0.00" occupancy="100.00" speed="-1.00" length="-1.00" nVehEntered="0"/>
    <interval begin="450.00" end="480.00" id="o2" nVehContrib="0" flow="0.00" occupancy="0.00" speed="-1.00" length="-1.00" nVehEntered="0"/>
    <interval begin="450.00" end="480.00" id="o3" nVehContrib="0" flow="0.00" occupancy="41.78" speed="-1.00" length="-1.00" nVehEntered="1"/>
    <interval begin="480.00" end="510.00" id="i0" nVehContrib="1" flow="120.00" occupancy="1.00" speed="16.61" length="5.00" nVehEntered="1"/>
    <interval begin="480.00" end="510.00" id="i1" nVehContrib="1" flow="120.00" occupancy="1.01" speed="16.54" length="5.00" nVehEntered="1"/>
    <interval begin="480.00" end="510.00" id="i2" nVehContrib="0" flow="0.00" occupancy="0.00" speed="-1.00" length="-1.00" nVehEntered="0"/>
    <interval begin="480.00" end="510.00" id="i3" nVehContrib="1" flow="120.00" occupancy="1.02" speed="16.27" length="5.00" nVehEntered="1"/>
    <interval begin="480.00" end="510.00" id="o0" nVehContrib="1" flow="120.00" occupancy="1.15" speed="13.43" length="5.00" nVehEntered="0"/>
    <interval begin="480.00" end="510.00" id="o1" nVehContrib="1" flow="120.00" occupancy="88.23" speed="0.08" length="5.00" nVehEntered="1"/>
    <interval begin="480.00" end="510.00" id="o2" nVehContrib="0" flow="0.00" occupancy="0.00" speed="-1.00" length="-1.00" nVehEntered="0"/>
    <interval begin="480.00" end="510.00" id="o3" nVehContrib="1" flow="120.00" occupancy="90.11" speed="0.13" length="5.00" nVehEntered="1"/>
    <interval begin="510.00" end="540.00" id="i0" nVehContrib="1" flow="120.00" occupancy="1.01" speed="16.43" length="5.00" nVehEntered="1"/>
    <interval begin="510.00" end="540.00" id="i1" nVehContrib="2" flow="240.00" occupancy="2.04" speed="16.37" length="5.00" nVehEntered="2"/>
    <interval begin="510.00" end="540.00" id="i2" nVehContrib="1" flow="120.00" occupancy="1.00" speed="16.67" length="5.00" nVehEntered="1"/>
    <interval begin="510.00" end="540.00" id="i3" nVehContrib="1" flow="120.00" occupancy="1.01" speed="16.51" length="5.00" nVehEntered="1"/>
    <interval begin="510.00" end="540.00" id="o0" nVehContrib="1" flow="120.00" occupancy="9.05" speed="13.48" length="5.00" nVehEntered="2"/>
    <interval begin="510.00" end="540.00" id="o1" nVehContrib="5" flow="600.00" occupancy="64.88" speed="3.53" length="5.00" nVehEntered="5"/>
    <interval begin="510.00" end="540.00" id="o2" nVehContrib="0" flow="0.00" occupancy="0.00" speed="-1.00" length="-1.00" nVehEntered="0"/>
    <interval begin="510.00" end="540.00" id="o3" nVehContrib="5" flow="600.00" occupancy="66.68" speed="3.52" length="5.00" nVehEntered="5"/>
    <interval begin="540.00" end="570.00" id="i0" nVehContrib="0" flow="0.00" occupancy="0.00" speed="-1.00" length="-1.00" nVehEntered="0"/>
    <interval begin="540.00" end="570.00" id="i1" nVehContrib="0" flow="0.00" occupancy="0.00" speed="-1.00" length="-1.00" nVehEntered="0"/>
    <interval begin="540.00" end="570.00" id="i2" nVehContrib="1" flow="120.00" occupancy="1.01" speed="16.53" length="5.00" nVehEntered="1"/>
    <interval begin="540.00" end="570.00" id="i3" nVehContrib="2" flow="240.00" occupancy="2.03" speed="16.39" length="5.00" nVehEntered="2"/>
    <interval begin="540.00" end="570.00" id="o0" nVehContrib="1" flow="120.00" occupancy="10.69" speed="0.90" length="5.00" nVehEntered="0"/>
    <interval begin="540.00" end="570.00" id="o1" nVehContrib="1" flow="120.00" occupancy="88.14" speed="0.19" length="5.00" nVehEntered="1"/>
    <interval begin="540.00" end="570.00" id="o2" nVehContrib="2" flow="240.00" occupancy="2.77" speed="12.04" length="5.00" nVehEntered="2"/>
    <interval begin="540.00" end="570.00" id="o3" nVehContrib="1" flow="120.00" occupancy="88.76" speed="0.19" length="5.00" nVehEntered="1"/>
    <interval begin="570.00" end="600.00" id="i0" nVehContrib="2" flow="240.00" occupancy="2.02" speed="16.50" length="5.00" nVehEntered="2"/>
    <interval begin="570.00" end="600.00" id="i1" nVehContrib="3" flow="360.00" occupancy="3.05" speed="16.38" length="5.00" nVehEntered="3"/>
    <interval begin="570.00" end="600.00" id="i2" nVehContrib="0" flow="0.00" occupancy="0.00" speed="-1.00" length="-1.00" nVehEntered="0"/>
    <interval begin="570.00" end="600.00" id="i3" nVehContrib="2" flow="240.00" occupancy="2.01" speed="16.59" length="5.00" nVehEntered="2"/>
    <interval begin="570.00" end="600.00" id="o0" nVehContrib="1" flow="120.00" occupancy="1.39" speed="12.03" length="5.00" nVehEntered="1"/>
    <interval begin="570.00" end="600.00" id="o1" nVehContrib="2" flow="240.00" occupancy="82.73" speed="0.38" length="5.00" nVehEntered="1"/>
    <interval begin="570.00" end="600.00" id="o2" nVehContrib="0" flow="0.00" occupancy="0.00" speed="-1.00" length="-1.00" nVehEntered="0"/>
    <interval begin="570.00" end="600.00" id="o3" nVehContrib="2" flow="240.00" occupancy="84.69" speed="0.36" length="5.00" nVehEntered="1"/>
    <interval begin="600.00" end="630.00" id="i0" nVehContrib="0" flow="0.00" occupancy="0.00" speed="-1.00" length="-1.00" nVehEntered="0"/>
    <interval begin="600.00" end="630.00" id="i1" nVehContrib="0" flow="0.00" occupancy="0.00" speed="-1.00" length="-1.00" nVehEntered="0"/>
    <interval begin="600.00" end="630.00" id="i2" nVehContrib="3" flow="360.00" occupancy="3.03" speed="16.51" length="5.00" nVehEntered="3"/>
    <interval begin="600.00" end="630.00" id="i3" nVehContrib="1" flow="120.00" occupancy="1.93" speed="16.43" length="5.00" nVehEntered="2"/>
    <interval begin="600.00" end="630.00" id="o0" nVehContrib="1" flow="120.00" occupancy="22.13" speed="0.75" length="5.00" nVehEntered="1"/>
    <interval begin="600.00" end="630.00" id="o1" nVehContrib="1" flow="120.00" occupancy="85.79" speed="0.31" length="5.00" nVehEntered="2"/>
    <interval begin="600.00" end="630.00" id="o2" nVehContrib="1" flow="120.00" occupancy="25.38" speed="0.66" length="5.00" nVehEntered="1"/>
    <interval begin="600.00" end="630.00" id="o3" nVehContrib="1" flow="120.00" occupancy="84.84" speed="0.30" length="5.00" nVehEntered="2"/>
    <interval begin="630.00" end="660.00" id="i0" nVehContrib="2" flow="240.00" occupancy="2.01" speed="16.56" length="5.00" nVehEntered="2"/>
    <interval begin="630.00" end="660.00" id="i1" nVehContrib="0" flow="0.00" occupancy="0.00" speed="-1.00" length="-1.00" nVehEntered="0"/>
    <interval begin="630.00" end="660.00" id="i2" nVehContrib="2" flow="240.00" occupancy="2.02" speed="16.48" length="5.00" nVehEntered="2"/>
    <interval begin="630.00" end="660.00" id="i3" nVehContrib="2" flow="240.00" occupancy="1.12" speed="16.37" length="5.00" nVehEntered="1"/>
    <interval begin="630.00" end="660.00" id="o0" nVehContrib="0" flow="0.00" occupancy="54.57" speed="-1.00" length="-1.00" nVehEntered="1"/>
    <interval begin="630.00" end="660.00" id="o1" nVehContrib="2" flow="240.00" occupancy="82.22" speed="1.44" length="5.00" nVehEntered="2"/>
    <interval begin="630.00" end="660.00" id="o2" nVehContrib="0" flow="0.00" occupancy="24.91" speed="-1.00" length="-1.00" nVehEntered="1"/>
    <interval begin="630.00" end="660.00" id="o3" nVehContrib="3" flow="360.00" occupancy="28.85" speed="2.31" length="5.00" nVehEntered="3"/>
    <interval begin="660.00" end="690.00" id="i0" nVehContrib="1" flow="120.00" occupancy="1.02" speed="16.41" length="5.00" nVehEntered="1"/>
    <interval begin="660.00" end="690.00" id="i1" nVehContrib="1" flow="120.00" occupancy="1.01" speed="16.53" length="5.00" nVehEntered="1"/>
    <interval begin="660.00" end="690.00" id="i2" nVehContrib="0" flow="0.00" occupancy="0.00" speed="-1.00" length="-1.00" nVehEntered="0"/>
    <interval begin="660.00" end="690.00" id="i3" nVehContrib="3" flow="360.00" occupancy="3.03" speed="16.50" length="5.00" nVehEntered="3"/>
    <interval begin="660.00" end="690.00" id="o0" nVehContrib="1" flow="120.00" occupancy="88.75" speed="0.26" length="5.00" nVehEntered="1"/>
    <interval begin="660.00" end="690.00" id="o1" nVehContrib="3" flow="360.00" occupancy="64.54" speed="2.22" length="5.00" nVehEntered="3"/>
    <interval begin="660.00" end="690.00" id="o2" nVehContrib="1" flow="120.00" occupancy="90.94" speed="0.43" length="5.00" nVehEntered="1"/>
    <interval begin="660.00" end="690.00" id="o3" nVehContrib="3" flow="360.00" occupancy="76.75" speed="2.37" length="5.00" nVehEntered="3"/>
    <interval begin="690.00" end="720.00" id="i0" nVehContrib="1" flow="120.00" occupancy="1.01" speed="16.54" length="5.00" nVehEntered="1"/>
    <interval begin="690.00" end="720.00" id="i1" nVehContrib="2" flow="240.00" occupancy="2.03" speed="16.39" length="5.00" nVehEntered="2"/>
    <interval begin="690.00" end="720.00" id="i2" nVehContrib="2" flow="240.00" occupancy="2.03" speed="16.45" length="5.00" nVehEntered="2"/>
    <interval begin="690.00" end="720.00" id="i3" nVehContrib="1" flow="120.00" occupancy="1.02" speed="16.40" length="5.00" nVehEntered="1"/>
    <interval begin="690.00" end="720.00" id="o0" nVehContrib="1" flow="120.00" occupancy="86.81" speed="0.10" length="5.00" nVehEntered="1"/>
    <interval begin="690.00" end="720.00" id="o1" nVehContrib="1" flow="120.00" occupancy="16.75" speed="0.52" length="5.00" nVehEntered="0"/>
    <interval begin="690.00" end="720.00" id="o2" nVehContrib="1" flow="120.00" occupancy="89.02" speed="0.10" length="5.00" nVehEntered="1"/>
    <interval begin="690.00" end="720.00" id="o3" nVehContrib="5" flow="600.00" occupancy="66.80" speed="3.43" length="5.00" nVehEntered="5"/>
    <interval begin="720.00" end="750.00" id="i0" nVehContrib="2" flow="240.00" occupancy="2.04" speed="16.33" length="5.00" nVehEntered="2"/>
    <interval begin="720.00" end="750.00" id="i1" nVehContrib="0" flow="0.00" occupancy="0.00" speed="-1.00" length="-1.00" nVehEntered="0"/>
    <interval begin="720.00" end="750.00" id="i2" nVehContrib="1" flow="120.00" occupancy="1.01" speed="16.46" length="5.00" nVehEntered="1"/>
    <interval begin="720.00" end="750.00" id="i3" nVehContrib="4" flow="480.00" occupancy="4.55" speed="16.48" length="5.00" nVehEntered="5"/>
    <interval begin="720.00" end="750.00" id="o0" nVehContrib="2" flow="240.00" occupancy="6.28" speed="5.44" length="5.00" nVehEntered="1"/>
    <interval begin="720.00" end="750.00" id="o1" nVehContrib="1" flow="120.00" occupancy="79.64" speed="0.25" length="5.00" nVehEntered="2"/>
    <interval begin="720.00" end="750.00" id="o2" nVehContrib="4" flow="480.00" occupancy="12.16" speed="5.63" length="5.00" nVehEntered="3"/>
    <interval begin="720.00" end="750.00" id="o3" nVehContrib="1" flow="120.00" occupancy="90.33" speed="0.15" length="5.00" nVehEntered="1"/>
    <interval begin="750.00" end="780.00" id="i0" nVehContrib="0" flow="0.00" occupancy="0.00" speed="-1.00" length="-1.00" nVehEntered="0"/>
    <interval begin="750.00" end="780.00" id="i1" nVehContrib="1" flow="120.00" occupancy="1.02" speed="16.38" length="5.00" nVehEntered="1"/>
    <interval begin="750.00" end="780.00" id="i2" nVehContrib="2" flow="240.00" occupancy="2.02" speed="16.50" length="5.00" nVehEntered="2"/>