<?xml version="1.0" encoding="UTF-8"?>

<!-- generated on Fri 08 Sep 2017 10:34:32 AM CEST by SUMO gui Version 0.30.0
<?xml version="1.0" encoding="UTF-8"?>

<configuration xmlns:xsi="http://www.w3.org/2001/XMLSchema-instance" xsi:noNamespaceSchemaLocation="http://sumo.dlr.de/xsd/sumoConfiguration.xsd">

    <input>
        <net-file value="data/cross.net.xml"/>
        <route-files value="data/cross.rou.xml"/>
        <additional-files value="data/cross1.det.xml"/>
    </input>

    <output>
        <tripinfo-output value="tripinfo.xml"/>
    </output>

    <time>
        <begin value="0"/>
    </time>

    <report>
        <verbose value="true"/>
        <no-step-log value="true"/>
    </report>

    <traci_server>
        <remote-port value="58073"/>
    </traci_server>

    <gui_only>
        <gui-settings-file value="data/gui.settings.xml"/>
    </gui_only>

</configuration>
-->

<detector xmlns:xsi="http://www.w3.org/2001/XMLSchema-instance" xsi:noNamespaceSchemaLocation="http://sumo.dlr.de/xsd/det_e1_file.xsd">
    <interval begin="0.00" end="30.00" id="i0" nVehContrib="0" flow="0.00" occupancy="0.00" speed="-1.00" length="-1.00" nVehEntered="0"/>
    <interval begin="0.00" end="30.00" id="i1" nVehContrib="0" flow="0.00" occupancy="0.00" speed="-1.00" length="-1.00" nVehEntered="0"/>
    <interval begin="0.00" end="30.00" id="i2" nVehContrib="0" flow="0.00" occupancy="0.00" speed="-1.00" length="-1.00" nVehEntered="0"/>
    <interval begin="0.00" end="30.00" id="i3" nVehContrib="0" flow="0.00" occupancy="0.00" speed="-1.00" length="-1.00" nVehEntered="0"/>
    <interval begin="0.00" end="30.00" id="o0" nVehContrib="0" flow="0.00" occupancy="0.00" speed="-1.00" length="-1.00" nVehEntered="0"/>
    <interval begin="0.00" end="30.00" id="o1" nVehContrib="0" flow="0.00" occupancy="0.00" speed="-1.00" length="-1.00" nVehEntered="0"/>
    <interval begin="0.00" end="30.00" id="o2" nVehContrib="0" flow="0.00" occupancy="0.00" speed="-1.00" length="-1.00" nVehEntered="0"/>
    <interval begin="0.00" end="30.00" id="o3" nVehContrib="0" flow="0.00" occupancy="0.00" speed="-1.00" length="-1.00" nVehEntered="0"/>
    <interval begin="30.00" end="60.00" id="i0" nVehContrib="2" flow="240.00" occupancy="2.03" speed="16.43" length="5.00" nVehEntered="2"/>
    <interval begin="30.00" end="60.00" id="i1" nVehContrib="3" flow="360.00" occupancy="3.69" speed="18.99" length="7.00" nVehEntered="3"/>
    <interval begin="30.00" end="60.00" id="i2" nVehContrib="1" flow="120.00" occupancy="1.01" speed="16.47" length="5.00" nVehEntered="1"/>
    <interval begin="30.00" end="60.00" id="i3" nVehContrib="3" flow="360.00" occupancy="3.68" speed="19.01" length="7.00" nVehEntered="3"/>
    <interval begin="30.00" end="60.00" id="o0" nVehContrib="1" flow="120.00" occupancy="14.52" speed="15.07" length="5.00" nVehEntered="2"/>
    <interval begin="30.00" end="60.00" id="o1" nVehContrib="1" flow="120.00" occupancy="32.09" speed="0.93" length="7.00" nVehEntered="2"/>
    <interval begin="30.00" end="60.00" id="o2" nVehContrib="0" flow="0.00" occupancy="24.53" speed="-1.00" length="-1.00" nVehEntered="1"/>
    <interval begin="30.00" end="60.00" id="o3" nVehContrib="1" flow="120.00" occupancy="47.63" speed="0.57" length="7.00" nVehEntered="2"/>
    <interval begin="60.00" end="90.00" id="i0" nVehContrib="4" flow="480.00" occupancy="4.04" speed="16.50" length="5.00" nVehEntered="4"/>
    <interval begin="60.00" end="90.00" id="i1" nVehContrib="3" flow="360.00" occupancy="3.66" speed="19.15" length="7.00" nVehEntered="3"/>
    <interval begin="60.00" end="90.00" id="i2" nVehContrib="0" flow="0.00" occupancy="0.00" speed="-1.00" length="-1.00" nVehEntered="0"/>
    <interval begin="60.00" end="90.00" id="i3" nVehContrib="2" flow="240.00" occupancy="2.44" speed="19.15" length="7.00" nVehEntered="2"/>
    <interval begin="60.00" end="90.00" id="o0" nVehContrib="2" flow="240.00" occupancy="80.95" speed="1.30" length="5.00" nVehEntered="1"/>
    <interval begin="60.00" end="90.00" id="o1" nVehContrib="1" flow="120.00" occupancy="87.88" speed="3.16" length="7.00" nVehEntered="1"/>
    <interval begin="60.00" end="90.00" id="o2" nVehContrib="1" flow="120.00" occupancy="74.55" speed="0.17" length="5.00" nVehEntered="0"/>
    <interval begin="60.00" end="90.00" id="o3" nVehContrib="1" flow="120.00" occupancy="93.32" speed="3.02" length="7.00" nVehEntered="1"/>
    <interval begin="90.00" end="120.00" id="i0" nVehContrib="2" flow="240.00" occupancy="2.02" speed="16.51" length="5.00" nVehEntered="2"/>
    <interval begin="90.00" end="120.00" id="i1" nVehContrib="6" flow="720.00" occupancy="7.35" speed="19.06" length="7.00" nVehEntered="6"/>
    <interval begin="90.00" end="120.00" id="i2" nVehContrib="3" flow="360.00" occupancy="3.03" speed="16.51" length="5.00" nVehEntered="3"/>
    <interval begin="90.00" end="120.00" id="i3" nVehContrib="3" flow="360.00" occupancy="3.64" speed="19.24" length="7.00" nVehEntered="3"/>
    <interval begin="90.00" end="120.00" id="o0" nVehContrib="1" flow="120.00" occupancy="30.16" speed="2.32" length="5.00" nVehEntered="2"/>
    <interval begin="90.00" end="120.00" id="o1" nVehContrib="1" flow="120.00" occupancy="91.04" speed="0.22" length="7.00" nVehEntered="1"/>
    <interval begin="90.00" end="120.00" id="o2" nVehContrib="1" flow="120.00" occupancy="7.47" speed="11.95" length="5.00" nVehEntered="2"/>
    <interval begin="90.00" end="120.00" id="o3" nVehContrib="1" flow="120.00" occupancy="89.07" speed="0.21" length="7.00" nVehEntered="1"/>
    <interval begin="120.00" end="150.00" id="i0" nVehContrib="1" flow="120.00" occupancy="1.02" speed="16.40" length="5.00" nVehEntered="1"/>
    <interval begin="120.00" end="150.00" id="i1" nVehContrib="2" flow="240.00" occupancy="2.45" speed="19.02" length="7.00" nVehEntered="2"/>
    <interval begin="120.00" end="150.00" id="i2" nVehContrib="4" flow="480.00" occupancy="4.05" speed="16.46" length="5.00" nVehEntered="4"/>
    <interval begin="120.00" end="150.00" id="i3" nVehContrib="0" flow="0.00" occupancy="0.00" speed="-1.00" length="-1.00" nVehEntered="0"/>
    <interval begin="120.00" end="150.00" id="o0" nVehContrib="2" flow="240.00" occupancy="80.12" speed="0.37" length="5.00" nVehEntered="2"/>
    <interval begin="120.00" end="150.00" id="o1" nVehContrib="1" flow="120.00" occupancy="89.64" speed="0.18" length="7.00" nVehEntered="1"/>
    <interval begin="120.00" end="150.00" id="o2" nVehContrib="2" flow="240.00" occupancy="79.07" speed="0.49" length="5.00" nVehEntered="2"/>
    <interval begin="120.00" end="150.00" id="o3" nVehContrib="1" flow="120.00" occupancy="91.11" speed="0.18" length="7.00" nVehEntered="1"/>
    <interval begin="150.00" end="180.00" id="i0" nVehContrib="1" flow="120.00" occupancy="1.01" speed="16.52" length="5.00" nVehEntered="1"/>
    <interval begin="150.00" end="180.00" id="i1" nVehContrib="2" flow="240.00" occupancy="2.43" speed="19.18" length="7.00" nVehEntered="2"/>
    <interval begin="150.00" end="180.00" id="i2" nVehContrib="4" flow="480.00" occupancy="4.05" speed="16.48" length="5.00" nVehEntered="4"/>
    <interval begin="150.00" end="180.00" id="i3" nVehContrib="4" flow="480.00" occupancy="4.89" speed="19.08" length="7.00" nVehEntered="4"/>
    <interval begin="150.00" end="180.00" id="o0" nVehContrib="1" flow="120.00" occupancy="41.08" speed="0.38" length="5.00" nVehEntered="1"/>
    <interval begin="150.00" end="180.00" id="o1" nVehContrib="2" flow="240.00" occupancy="83.36" speed="0.57" length="7.00" nVehEntered="2"/>
    <interval begin="150.00" end="180.00" id="o2" nVehContrib="1" flow="120.00" occupancy="88.34" speed="0.18" length="5.00" nVehEntered="1"/>
    <interval begin="150.00" end="180.00" id="o3" nVehContrib="2" flow="240.00" occupancy="83.33" speed="0.57" length="7.00" nVehEntered="2"/>
    <interval begin="180.00" end="210.00" id="i0" nVehContrib="4" flow="480.00" occupancy="4.03" speed="16.52" length="5.00" nVehEntered="4"/>
    <interval begin="180.00" end="210.00" id="i1" nVehContrib="2" flow="240.00" occupancy="2.44" speed="19.14" length="7.00" nVehEntered="2"/>
    <interval begin="180.00" end="210.00" id="i2" nVehContrib="3" flow="360.00" occupancy="3.05" speed="16.40" length="5.00" nVehEntered="3"/>
    <interval begin="180.00" end="210.00" id="i3" nVehContrib="4" flow="480.00" occupancy="4.90" speed="19.04" length="7.00" nVehEntered="4"/>
    <interval begin="180.00" end="210.00" id="o0" nVehContrib="1" flow="120.00" occupancy="89.46" speed="0.17" length="5.00" nVehEntered="1"/>
    <interval begin="180.00" end="210.00" id="o1" nVehContrib="2" flow="240.00" occupancy="80.81" speed="0.56" length="7.00" nVehEntered="2"/>
    <interval begin="180.00" end="210.00" id="o2" nVehContrib="1" flow="120.00" occupancy="88.88" speed="0.17" length="5.00" nVehEntered="1"/>
    <interval begin="180.00" end="210.00" id="o3" nVehContrib="2" flow="240.00" occupancy="80.53" speed="0.56" length="7.00" nVehEntered="2"/>
    <interval begin="210.00" end="240.00" id="i0" nVehContrib="6" flow="720.00" occupancy="6.07" speed="16.48" length="5.00" nVehEntered="6"/>
    <interval begin="210.00" end="240.00" id="i1" nVehContrib="3" flow="360.00" occupancy="3.66" speed="19.15" length="7.00" nVehEntered="3"/>
    <interval begin="210.00" end="240.00" id="i2" nVehContrib="0" flow="0.00" occupancy="0.00" speed="-1.00" length="-1.00" nVehEntered="0"/>
    <interval begin="210.00" end="240.00" id="i3" nVehContrib="3" flow="360.00" occupancy="3.72" speed="18.85" length="7.00" nVehEntered="3"/>
    <interval begin="210.00" end="240.00" id="o0" nVehContrib="1" flow="120.00" occupancy="97.72" speed="0.17" length="5.00" nVehEntered="0"/>
    <interval begin="210.00" end="240.00" id="o1" nVehContrib="2" flow="240.00" occupancy="82.69" speed="0.51" length="7.00" nVehEntered="2"/>
    <interval begin="210.00" end="240.00" id="o2" nVehContrib="1" flow="120.00" occupancy="96.93" speed="0.17" length="5.00" nVehEntered="0"/>
    <interval begin="210.00" end="240.00" id="o3" nVehContrib="2" flow="240.00" occupancy="81.81" speed="0.51" length="7.00" nVehEntered="2"/>
    <interval begin="240.00" end="270.00" id="i0" nVehContrib="5" flow="600.00" occupancy="5.07" speed="16.45" length="5.00" nVehEntered="5"/>
    <interval begin="240.00" end="270.00" id="i1" nVehContrib="1" flow="120.00" occupancy="1.22" speed="19.10" length="7.00" nVehEntered="1"/>
    <interval begin="240.00" end="270.00" id="i2" nVehContrib="3" flow="360.00" occupancy="3.04" speed="16.47" length="5.00" nVehEntered="3"/>
    <interval begin="240.00" end="270.00" id="i3" nVehContrib="4" flow="480.00" occupancy="4.94" speed="18.91" length="7.00" nVehEntered="4"/>
    <interval begin="240.00" end="270.00" id="o0" nVehContrib="1" flow="120.00" occupancy="80.72" speed="0.35" length="5.00" nVehEntered="2"/>
    <interval begin="240.00" end="270.00" id="o1" nVehContrib="2" flow="240.00" occupancy="82.12" speed="0.47" length="7.00" nVehEntered="2"/>
    <interval begin="240.00" end="270.00" id="o2" nVehContrib="1" flow="120.00" occupancy="81.16" speed="0.34" length="5.00" nVehEntered="2"/>
    <interval begin="240.00" end="270.00" id="o3" nVehContrib="2" flow="240.00" occupancy="81.81" speed="0.46" length="7.00" nVehEntered="2"/>
    <interval begin="270.00" end="300.00" id="i0" nVehContrib="4" flow="480.00" occupancy="4.04" speed="16.48" length="5.00" nVehEntered="4"/>
    <interval begin="270.00" end="300.00" id="i1" nVehContrib="2" flow="240.00" occupancy="2.48" speed="18.80" length="7.00" nVehEntered="2"/>
    <interval begin="270.00" end="300.00" id="i2" nVehContrib="2" flow="240.00" occupancy="2.03" speed="16.43" length="5.00" nVehEntered="2"/>
    <interval begin="270.00" end="300.00" id="i3" nVehContrib="2" flow="240.00" occupancy="2.43" speed="19.19" length="7.00" nVehEntered="2"/>
    <interval begin="270.00" end="300.00" id="o0" nVehContrib="1" flow="120.00" occupancy="89.19" speed="0.31" length="5.00" nVehEntered="1"/>
    <interval begin="270.00" end="300.00" id="o1" nVehContrib="1" flow="120.00" occupancy="97.74" speed="0.23" length="7.00" nVehEntered="0"/>
    <interval begin="270.00" end="300.00" id="o2" nVehContrib="1" flow="120.00" occupancy="90.45" speed="0.31" length="5.00" nVehEntered="1"/>
    <interval begin="270.00" end="300.00" id="o3" nVehContrib="1" flow="120.00" occupancy="96.95" speed="0.24" length="7.00" nVehEntered="0"/>
    <interval begin="300.00" end="330.00" id="i0" nVehContrib="1" flow="120.00" occupancy="1.01" speed="16.57" length="5.00" nVehEntered="1"/>
    <interval begin="300.00" end="330.00" id="i1" nVehContrib="5" flow="600.00" occupancy="6.22" speed="18.76" length="7.00" nVehEntered="5"/>
    <interval begin="300.00" end="330.00" id="i2" nVehContrib="5" flow="600.00" occupancy="5.06" speed="16.47" length="5.00" nVehEntered="5"/>
    <interval begin="300.00" end="330.00" id="i3" nVehContrib="6" flow="720.00" occupancy="8.31" speed="17.18" length="7.00" nVehEntered="6"/>
    <interval begin="300.00" end="330.00" id="o0" nVehContrib="2" flow="240.00" occupancy="77.87" speed="0.32" length="5.00" nVehEntered="2"/>
    <interval begin="300.00" end="330.00" id="o1" nVehContrib="0" flow="0.00" occupancy="92.77" speed="-1.00" length="-1.00" nVehEntered="1"/>
    <interval begin="300.00" end="330.00" id="o2" nVehContrib="2" flow="240.00" occupancy="78.58" speed="0.31" length="5.00" nVehEntered="2"/>
    <interval begin="300.00" end="330.00" id="o3" nVehContrib="0" flow="0.00" occupancy="93.96" speed="-1.00" length="-1.00" nVehEntered="1"/>
    <interval begin="330.00" end="360.00" id="i0" nVehContrib="3" flow="360.00" occupancy="3.05" speed="16.38" length="5.00" nVehEntered="3"/>
    <interval begin="330.00" end="360.00" id="i1" nVehContrib="4" flow="480.00" occupancy="18.67" speed="10.36" length="7.00" nVehEntered="4"/>
    <interval begin="330.00" end="360.00" id="i2" nVehContrib="3" flow="360.00" occupancy="3.04" speed="16.46" length="5.00" nVehEntered="3"/>
    <interval begin="330.00" end="360.00" id="i3" nVehContrib="2" flow="240.00" occupancy="34.41" speed="4.96" length="7.00" nVehEntered="2"/>
    <interval begin="330.00" end="360.00" id="o0" nVehContrib="1" flow="120.00" occupancy="90.20" speed="0.33" length="5.00" nVehEntered="1"/>
    <interval begin="330.00" end="360.00" id="o1" nVehContrib="2" flow="240.00" occupancy="80.61" speed="0.34" length="7.00" nVehEntered="2"/>
    <interval begin="330.00" end="360.00" id="o2" nVehContrib="1" flow="120.00" occupancy="90.45" speed="0.33" length="5.00" nVehEntered="1"/>
    <interval begin="330.00" end="360.00" id="o3" nVehContrib="2" flow="240.00" occupancy="82.21" speed="0.34" length="7.00" nVehEntered="2"/>
    <interval begin="360.00" end="390.00" id="i0" nVehContrib="3" flow="360.00" occupancy="3.09" speed="16.20" length="5.00" nVehEntered="3"/>
    <interval begin="360.00" end="390.00" id="i1" nVehContrib="1" flow="120.00" occupancy="87.97" speed="0.47" length="7.00" nVehEntered="2"/>
    <interval begin="360.00" end="390.00" id="i2" nVehContrib="2" flow="240.00" occupancy="2.02" speed="16.54" length="5.00" nVehEntered="2"/>
    <interval begin="360.00" end="390.00" id="i3" nVehContrib="1" flow="120.00" occupancy="80.80" speed="0.48" length="7.00" nVehEntered="2"/>
    <interval begin="360.00" end="390.00" id="o0" nVehContrib="1" flow="120.00" occupancy="90.05" speed="0.31" length="5.00" nVehEntered="1"/>
    <interval begin="360.00" end="390.00" id="o1" nVehContrib="1" flow="120.00" occupancy="90.46" speed="0.23" length="7.00" nVehEntered="1"/>
    <interval begin="360.00" end="390.00" id="o2" nVehContrib="1" flow="120.00" occupancy="89.57" speed="0.31" length="5.00" nVehEntered="1"/>
    <interval begin="360.00" end="390.00" id="o3" nVehContrib="1" flow="120.00" occupancy="89.39" speed="0.23" length="7.00" nVehEntered="1"/>
    <interval begin="390.00" end="420.00" id="i0" nVehContrib="2" flow="240.00" occupancy="2.20" speed="15.27" length="5.00" nVehEntered="2"/>
    <interval begin="390.00" end="420.00" id="i1" nVehContrib="2" flow="240.00" occupancy="83.67" speed="1.53" length="7.00" nVehEntered="2"/>
    <interval begin="390.00" end="420.00" id="i2" nVehContrib="5" flow="600.00" occupancy="5.06" speed="16.47" length="5.00" nVehEntered="5"/>
    <interval begin="390.00" end="420.00" id="i3" nVehContrib="2" flow="240.00" occupancy="84.06" speed="1.71" length="7.00" nVehEntered="2"/>
    <interval begin="390.00" end="420.00" id="o0" nVehContrib="2" flow="240.00" occupancy="79.49" speed="0.26" length="5.00" nVehEntered="2"/>
    <interval begin="390.00" end="420.00" id="o1" nVehContrib="2" flow="240.00" occupancy="85.54" speed="1.80" length="7.00" nVehEntered="2"/>
    <interval begin="390.00" end="420.00" id="o2" nVehContrib="2" flow="240.00" occupancy="77.42" speed="0.26" length="5.00" nVehEntered="2"/>
    <interval begin="390.00" end="420.00" id="o3" nVehContrib="2" flow="240.00" occupancy="82.37" speed="1.82" length="7.00" nVehEntered="2"/>
    <interval begin="420.00" end="450.00" id="i0" nVehContrib="4" flow="480.00" occupancy="14.07" speed="9.76" length="5.00" nVehEntered="5"/>
    <interval begin="420.00" end="450.00" id="i1" nVehContrib="1" flow="120.00" occupancy="91.54" speed="0.41" length="7.00" nVehEntered="1"/>
    <interval begin="420.00" end="450.00" id="i2" nVehContrib="5" flow="600.00" occupancy="15.46" speed="11.36" length="5.00" nVehEntered="6"/>
    <interval begin="420.00" end="450.00" id="i3" nVehContrib="2" flow="240.00" occupancy="82.27" speed="0.51" length="7.00" nVehEntered="1"/>
    <interval begin="420.00" end="450.00" id="o0" nVehContrib="1" flow="120.00" occupancy="90.21" speed="0.31" length="5.00" nVehEntered="1"/>
    <interval begin="420.00" end="450.00" id="o1" nVehContrib="1" flow="120.00" occupancy="91.60" speed="0.49" length="7.00" nVehEntered="1"/>
    <interval begin="420.00" end="450.00" id="o2" nVehContrib="1" flow="120.00" occupancy="88.66" speed="0.31" length="5.00" nVehEntered="1"/>
    <interval begin="420.00" end="450.00" id="o3" nVehContrib="1" flow="120.00" occupancy="91.49" speed="0.48" length="7.00" nVehEntered="1"/>
    <interval begin="450.00" end="480.00" id="i0" nVehContrib="2" flow="240.00" occupancy="24.77" speed="1.09" length="5.00" nVehEntered="1"/>
    <interval begin="450.00" end="480.00" id="i1" nVehContrib="1" flow="120.00" occupancy="91.21" speed="0.46" length="7.00" nVehEntered="1"/>
    <interval begin="450.00" end="480.00" id="i2" nVehContrib="2" flow="240.00" occupancy="24.47" speed="1.07" length="5.00" nVehEntered="1"/>
    <interval begin="450.00" end="480.00" id="i3" nVehContrib="0" flow="0.00" occupancy="91.49" speed="-1.00" length="-1.00" nVehEntered="1"/>
    <interval begin="450.00" end="480.00" id="o0" nVehContrib="2" flow="240.00" occupancy="78.57" speed="0.30" length="5.00" nVehEntered="2"/>
    <interval begin="450.00" end="480.00" id="o1" nVehContrib="1" flow="120.00" occupancy="90.96" speed="0.20" length="7.00" nVehEntered="1"/>
    <interval begin="450.00" end="480.00" id="o2" nVehContrib="2" flow="240.00" occupancy="81.59" speed="0.31" length="5.00" nVehEntered="2"/>
    <interval begin="450.00" end="480.00" id="o3" nVehContrib="1" flow="120.00" occupancy="90.76" speed="0.20" length="7.00" nVehEntered="1"/>
    <interval begin="480.00" end="510.00" id="i0" nVehContrib="1" flow="120.00" occupancy="31.41" speed="0.98" length="5.00" nVehEntered="2"/>
    <interval begin="480.00" end="510.00" id="i1" nVehContrib="2" flow="240.00" occupancy="81.21" speed="0.31" length="7.00" nVehEntered="2"/>
    <interval begin="480.00" end="510.00" id="i2" nVehContrib="2" flow="240.00" occupancy="24.26" speed="1.44" length="5.00" nVehEntered="2"/>
    <interval begin="480.00" end="510.00" id="i3" nVehContrib="2" flow="240.00" occupancy="81.29" speed="0.31" length="7.00" nVehEntered="2"/>
    <interval begin="480.00" end="510.00" id="o0" nVehContrib="1" flow="120.00" occupancy="88.60" speed="0.18" length="5.00" nVehEntered="1"/>
    <interval begin="480.00" end="510.00" id="o1" nVehContrib="1" flow="120.00" occupancy="91.03" speed="0.42" length="7.00" nVehEntered="1"/>
    <interval begin="480.00" end="510.00" id="o2" nVehContrib="1" flow="120.00" occupancy="88.64" speed="0.18" length="5.00" nVehEntered="1"/>
    <interval begin="480.00" end="510.00" id="o3" nVehContrib="1" flow="120.00" occupancy="90.94" speed="0.42" length="7.00" nVehEntered="1"/>
    <interval begin="510.00" end="540.00" id="i0" nVehContrib="1" flow="120.00" occupancy="13.23" speed="0.96" length="5.00" nVehEntered="1"/>
    <interval begin="510.00" end="540.00" id="i1" nVehContrib="1" flow="120.00" occupancy="96.64" speed="0.24" length="7.00" nVehEntered="0"/>
    <interval begin="510.00" end="540.00" id="i2" nVehContrib="0" flow="0.00" occupancy="9.60" speed="-1.00" length="-1.00" nVehEntered="1"/>
    <interval begin="510.00" end="540.00" id="i3" nVehContrib="1" flow="120.00" occupancy="96.03" speed="0.24" length="7.00" nVehEntered="0"/>
    <interval begin="510.00" end="540.00" id="o0" nVehContrib="0" flow="0.00" occupancy="100.00" speed="-1.00" length="-1.00" nVehEntered="0"/>
    <interval begin="510.00" end="540.00" id="o1" nVehContrib="2" flow="240.00" occupancy="81.34" speed="0.37" length="7.00" nVehEntered="2"/>
    <interval begin="510.00" end="540.00" id="o2" nVehContrib="0" flow="0.00" occupancy="100.00" speed="-1.00" length="-1.00" nVehEntered="0"/>
    <interval begin="510.00" end="540.00" id="o3" nVehContrib="2" flow="240.00" occupancy="83.28" speed="0.38" length="7.00" nVehEntered="2"/>
    <interval begin="540.00" end="570.00" id="i0" nVehContrib="1" flow="120.00" occupancy="10.91" speed="0.85" length="5.00" nVehEntered="1"/>
    <interval begin="540.00" end="570.00" id="i1" nVehContrib="1" flow="120.00" occupancy="84.82" speed="0.49" length="7.00" nVehEntered="2"/>
    <interval begin="540.00" end="570.00" id="i2" nVehContrib="1" flow="120.00" occupancy="10.26" speed="0.84" length="5.00" nVehEntered="0"/>
    <interval begin="540.00" end="570.00" id="i3" nVehContrib="1" flow="120.00" occupancy="86.05" speed="0.53" length="7.00" nVehEntered="2"/>
    <interval begin="540.00" end="570.00" id="o0" nVehContrib="2" flow="240.00" occupancy="83.51" speed="0.18" length="5.00" nVehEntered="1"/>
    <interval begin="540.00" end="570.00" id="o1" nVehContrib="1" flow="120.00" occupancy="89.20" speed="0.24" length="7.00" nVehEntered="1"/>
    <interval begin="540.00" end="570.00" id="o2" nVehContrib="2" flow="240.00" occupancy="82.40" speed="0.18" length="5.00" nVehEntered="1"/>
    <interval begin="540.00" end="570.00" id="o3" nVehContrib="1" flow="120.00" occupancy="90.32" speed="0.24" length="7.00" nVehEntered="1"/>
    <interval begin="570.00" end="600.00" id="i0" nVehContrib="1" flow="120.00" occupancy="27.51" speed="0.59" length="5.00" nVehEntered="1"/>
    <interval begin="570.00" end="600.00" id="i1" nVehContrib="1" flow="120.00" occupancy="89.87" speed="0.26" length="7.00" nVehEntered="1"/>
    <interval begin="570.00" end="600.00" id="i2" nVehContrib="1" flow="120.00" occupancy="21.51" speed="0.78" length="5.00" nVehEntered="2"/>
    <interval begin="570.00" end="600.00" id="i3" nVehContrib="1" flow="120.00" occupancy="90.31" speed="0.24" length="7.00" nVehEntered="1"/>
    <interval begin="570.00" end="600.00" id="o0" nVehContrib="1" flow="120.00" occupancy="84.85" speed="0.34" length="5.00" nVehEntered="2"/>
    <interval begin="570.00" end="600.00" id="o1" nVehContrib="2" flow="240.00" occupancy="91.18" speed="0.49" length="7.00" nVehEntered="1"/>
    <interval begin="570.00" end="600.00" id="o2" nVehContrib="1" flow="120.00" occupancy="84.02" speed="0.35" length="5.00" nVehEntered="2"/>
    <interval begin="570.00" end="600.00" id="o3" nVehContrib="2" flow="240.00" occupancy="88.29" speed="0.49" length="7.00" nVehEntered="1"/>
    <interval begin="600.00" end="630.00" id="i0" nVehContrib="2" flow="240.00" occupancy="36.00" speed="0.92" length="5.00" nVehEntered="1"/>
    <interval begin="600.00" end="630.00" id="i1" nVehContrib="3" flow="360.00" occupancy="76.27" speed="1.36" length="7.00" nVehEntered="2"/>
    <interval begin="600.00" end="630.00" id="i2" nVehContrib="2" flow="240.00" occupancy="39.26" speed="0.84" length="5.00" nVehEntered="1"/>
    <interval begin="600.00" end="630.00" id="i3" nVehContrib="3" flow="360.00" occupancy="74.53" speed="1.44" length="7.00" nVehEntered="3"/>
    <interval begin="600.00" end="630.00" id="o0" nVehContrib="1" flow="120.00" occupancy="90.36" speed="0.19" length="5.00" nVehEntered="1"/>
    <interval begin="600.00" end="630.00" id="o1" nVehContrib="3" flow="360.00" occupancy="68.66" speed="2.92" length="7.00" nVehEntered="4"/>
    <interval begin="600.00" end="630.00" id="o2" nVehContrib="1" flow="120.00" occupancy="89.74" speed="0.19" length="5.00" nVehEntered="1"/>
    <interval begin="600.00" end="630.00" id="o3" nVehContrib="3" flow="360.00" occupancy="70.77" speed="3.04" length="7.00" nVehEntered="4"/>
    <interval begin="630.00" end="660.00" id="i0" nVehContrib="1" flow="120.00" occupancy="20.92" speed="0.80" length="5.00" nVehEntered="1"/>
    <interval begin="630.00" end="660.00" id="i1" nVehContrib="2" flow="240.00" occupancy="83.63" speed="2.68" length="7.00" nVehEntered="3"/>
    <interval begin="630.00" end="660.00" id="i2" nVehContrib="1" flow="120.00" occupancy="15.50" speed="1.08" length="5.00" nVehEntered="1"/>
    <interval begin="630.00" end="660.00" id="i3" nVehContrib="2" flow="240.00" occupancy="85.58" speed="2.48" length="7.00" nVehEntered="2"/>
    <interval begin="630.00" end="660.00" id="o0" nVehContrib="2" flow="240.00" occupancy="46.63" speed="0.40" length="5.00" nVehEntered="1"/>
    <interval begin="630.00" end="660.00" id="o1" nVehContrib="0" flow="0.00" occupancy="100.00" speed="-1.00" length="-1.00" nVehEntered="0"/>
    <interval begin="630.00" end="660.00" id="o2" nVehContrib="1" flow="120.00" occupancy="90.45" speed="0.38" length="5.00" nVehEntered="1"/>
    <interval begin="630.00" end="660.00" id="o3" nVehContrib="1" flow="120.00" occupancy="90.49" speed="0.26" length="7.00" nVehEntered="1"/>
    <interval begin="660.00" end="690.00" id="i0" nVehContrib="1" flow="120.00" occupancy="25.51" speed="0.87" length="5.00" nVehEntered="2"/>
    <interval begin="660.00" end="690.00" id="i1" nVehContrib="0" flow="0.00" occupancy="100.00" speed="-1.00" length="-1.00" nVehEntered="0"/>
    <interval begin="660.00" end="690.00" id="i2" nVehContrib="1" flow="120.00" occupancy="18.24" speed="0.91" length="5.00" nVehEntered="1"/>
    <interval begin="660.00" end="690.00" id="i3" nVehContrib="1" flow="120.00" occupancy="89.25" speed="0.26" length="7.00" nVehEntered="1"/>
    <interval begin="660.00" end="690.00" id="o0" nVehContrib="0" flow="0.00" occupancy="89.02" speed="-1.00" length="-1.00" nVehEntered="1"/>
    <interval begin="660.00" end="690.00" id="o1" nVehContrib="2" flow="240.00" occupancy="81.13" speed="0.38" length="7.00" nVehEntered="2"/>
    <interval begin="660.00" end="690.00" id="o2" nVehContrib="1" flow="120.00" occupancy="89.12" speed="0.20" length="5.00" nVehEntered="1"/>
    <interval begin="660.00" end="690.00" id="o3" nVehContrib="1" flow="120.00" occupancy="91.08" speed="0.26" length="7.00" nVehEntered="1"/>
    <interval begin="690.00" end="720.00" id="i0" nVehContrib="1" flow="120.00" occupancy="21.24" speed="0.60" length="5.00" nVehEntered="0"/>
    <interval begin="690.00" end="720.00" id="i1" nVehContrib="2" flow="240.00" occupancy="82.10" speed="0.37" length="7.00" nVehEntered="2"/>
    <interval begin="690.00" end="720.00" id="i2" nVehContrib="1" flow="120.00" occupancy="22.92" speed="0.73" length="5.00" nVehEntered="1"/>
    <interval begin="690.00" end="720.00" id="i3" nVehContrib="1" flow="120.00" occupancy="90.37" speed="0.25" length="7.00" nVehEntered="1"/>
    <interval begin="690.00" end="720.00" id="o0" nVehContrib="4" flow="480.00" occupancy="68.01" speed="1.81" length="5.00" nVehEntered="3"/>
    <interval begin="690.00" end="720.00" id="o1" nVehContrib="1" flow="120.00" occupancy="90.41" speed="0.54" length="7.00" nVehEntered="1"/>
    <interval begin="690.00" end="720.00" id="o2" nVehContrib="4" flow="480.00" occupancy="69.92" speed="1.66" length="5.00" nVehEntered="3"/>
    <interval begin="690.00" end="720.00" id="o3" nVehContrib="1" flow="120.00" occupancy="91.23" speed="0.51" length="7.00" nVehEntered="1"/>
    <interval begin="720.00" end="750.00" id="i0" nVehContrib="3" flow="360.00" occupancy="42.52" speed="1.74" length="5.00" nVehEntered="3"/>
    <interval begin="720.00" end="750.00" id="i1" nVehContrib="1" flow="120.00" occupancy="91.80" speed="0.50" length="7.00" nVehEntered="1"/>
    <interval begin="720.00" end="750.00" id="i2" nVehContrib="3" flow="360.00" occupancy="30.32" speed="2.08" length="5.00" nVehEntered="3"/>
    <interval begin="720.00" end="750.00" id="i3" nVehContrib="1" flow="120.00" occupancy="90.83" speed="0.55" length="7.00" nVehEntered="1"/>
    <interval begin="720.00" end="750.00" id="o0" nVehContrib="1" flow="120.00" occupancy="83.97" speed="0.34" length="5.00" nVehEntered="2"/>
    <interval begin="720.00" end="750.00" id="o1" nVehContrib="1" flow="120.00" occupancy="90.55" speed="0.27" length="7.00" nVehEntered="1"/>
    <interval begin="720.00" end="750.00" id="o2" nVehContrib="1" flow="120.00" occupancy="84.72" speed="0.35" length="5.00" nVehEntered="2"/>
    <interval begin="720.00" end="750.00" id="o3" nVehContrib="1" flow="120.00" occupancy="90.28" speed="0.27" length="7.00" nVehEntered="1"/>
    <interval begin="750.00" end="780.00" id="i0" nVehContrib="2" flow="240.00" occupancy="29.64" speed="1.17" length="5.00" nVehEntered="2"/>
    <interval begin="750.00" end="780.00" id="i1" nVehContrib="1" flow="120.00" occupancy="90.03" speed="0.28" length="7.00" nVehEntered="1"/>
    <interval begin="750.00" end="780.00" id="i2" nVehContrib="2" flow="240.00" occupancy="28.57" speed="1.19" length="5.00" nVehEntered="2"/>