<?xml version="1.0" encoding="UTF-8"?>

<!-- generated on Fri Sep  8 16:23:19 2017 by SUMO gui Version 0.30.0
<?xml version="1.0" encoding="UTF-8"?>

<configuration xmlns:xsi="http://www.w3.org/2001/XMLSchema-instance" xsi:noNamespaceSchemaLocation="http://sumo.dlr.de/xsd/sumoConfiguration.xsd">

    <input>
        <net-file value="data/cross.net.xml"/>
        <route-files value="data/cross.rou.xml"/>
        <additional-files value="data/cross1.det.xml"/>
    </input>

    <output>
        <tripinfo-output value="tripinfo.xml"/>
    </output>

    <time>
        <begin value="0"/>
    </time>

    <report>
        <verbose value="true"/>
        <no-step-log value="true"/>
    </report>

    <traci_server>
        <remote-port value="50846"/>
    </traci_server>

    <gui_only>
        <gui-settings-file value="data/gui.settings.xml"/>
        <start value="true"/>
    </gui_only>

</configuration>
-->

<detector xmlns:xsi="http://www.w3.org/2001/XMLSchema-instance" xsi:noNamespaceSchemaLocation="http://sumo.dlr.de/xsd/det_e1_file.xsd">
    <interval begin="0.00" end="30.00" id="i0" nVehContrib="0" flow="0.00" occupancy="0.00" speed="-1.00" length="-1.00" nVehEntered="0"/>
    <interval begin="0.00" end="30.00" id="i1" nVehContrib="0" flow="0.00" occupancy="0.00" speed="-1.00" length="-1.00" nVehEntered="0"/>
    <interval begin="0.00" end="30.00" id="i2" nVehContrib="0" flow="0.00" occupancy="0.00" speed="-1.00" length="-1.00" nVehEntered="0"/>
    <interval begin="0.00" end="30.00" id="i3" nVehContrib="0" flow="0.00" occupancy="0.00" speed="-1.00" length="-1.00" nVehEntered="0"/>
    <interval begin="0.00" end="30.00" id="o0" nVehContrib="0" flow="0.00" occupancy="0.00" speed="-1.00" length="-1.00" nVehEntered="0"/>
    <interval begin="0.00" end="30.00" id="o1" nVehContrib="0" flow="0.00" occupancy="0.00" speed="-1.00" length="-1.00" nVehEntered="0"/>
    <interval begin="0.00" end="30.00" id="o2" nVehContrib="0" flow="0.00" occupancy="0.00" speed="-1.00" length="-1.00" nVehEntered="0"/>
    <interval begin="0.00" end="30.00" id="o3" nVehContrib="0" flow="0.00" occupancy="0.00" speed="-1.00" length="-1.00" nVehEntered="0"/>
    <interval begin="30.00" end="60.00" id="i0" nVehContrib="0" flow="0.00" occupancy="0.00" speed="-1.00" length="-1.00" nVehEntered="0"/>
    <interval begin="30.00" end="60.00" id="i1" nVehContrib="1" flow="120.00" occupancy="1.01" speed="16.50" length="5.00" nVehEntered="1"/>
    <interval begin="30.00" end="60.00" id="i2" nVehContrib="2" flow="240.00" occupancy="2.04" speed="16.34" length="5.00" nVehEntered="2"/>
    <interval begin="30.00" end="60.00" id="i3" nVehContrib="3" flow="360.00" occupancy="3.03" speed="16.48" length="5.00" nVehEntered="3"/>
    <interval begin="30.00" end="60.00" id="o0" nVehContrib="0" flow="0.00" occupancy="0.00" speed="-1.00" length="-1.00" nVehEntered="0"/>
    <interval begin="30.00" end="60.00" id="o1" nVehContrib="1" flow="120.00" occupancy="4.04" speed="4.12" length="5.00" nVehEntered="1"/>
    <interval begin="30.00" end="60.00" id="o2" nVehContrib="0" flow="0.00" occupancy="7.38" speed="-1.00" length="-1.00" nVehEntered="1"/>
    <interval begin="30.00" end="60.00" id="o3" nVehContrib="1" flow="120.00" occupancy="2.22" speed="7.49" length="5.00" nVehEntered="1"/>
    <interval begin="60.00" end="90.00" id="i0" nVehContrib="1" flow="120.00" occupancy="1.01" speed="16.43" length="5.00" nVehEntered="1"/>
    <interval begin="60.00" end="90.00" id="i1" nVehContrib="2" flow="240.00" occupancy="2.04" speed="16.32" length="5.00" nVehEntered="2"/>
    <interval begin="60.00" end="90.00" id="i2" nVehContrib="3" flow="360.00" occupancy="3.04" speed="16.43" length="5.00" nVehEntered="3"/>
    <interval begin="60.00" end="90.00" id="i3" nVehContrib="1" flow="120.00" occupancy="1.00" speed="16.62" length="5.00" nVehEntered="1"/>
    <interval begin="60.00" end="90.00" id="o0" nVehContrib="0" flow="0.00" occupancy="5.54" speed="-1.00" length="-1.00" nVehEntered="1"/>
    <interval begin="60.00" end="90.00" id="o1" nVehContrib="1" flow="120.00" occupancy="1.19" speed="14.04" length="5.00" nVehEntered="1"/>
    <interval begin="60.00" end="90.00" id="o2" nVehContrib="1" flow="120.00" occupancy="89.80" speed="0.66" length="5.00" nVehEntered="1"/>
    <interval begin="60.00" end="90.00" id="o3" nVehContrib="3" flow="360.00" occupancy="62.37" speed="2.12" length="5.00" nVehEntered="3"/>
    <interval begin="90.00" end="120.00" id="i0" nVehContrib="2" flow="240.00" occupancy="2.04" speed="16.37" length="5.00" nVehEntered="2"/>
    <interval begin="90.00" end="120.00" id="i1" nVehContrib="2" flow="240.00" occupancy="2.02" speed="16.49" length="5.00" nVehEntered="2"/>
    <interval begin="90.00" end="120.00" id="i2" nVehContrib="1" flow="120.00" occupancy="1.01" speed="16.50" length="5.00" nVehEntered="1"/>
    <interval begin="90.00" end="120.00" id="i3" nVehContrib="2" flow="240.00" occupancy="2.03" speed="16.44" length="5.00" nVehEntered="2"/>
    <interval begin="90.00" end="120.00" id="o0" nVehContrib="2" flow="240.00" occupancy="15.68" speed="2.20" length="5.00" nVehEntered="1"/>
    <interval begin="90.00" end="120.00" id="o1" nVehContrib="1" flow="120.00" occupancy="49.43" speed="1.19" length="5.00" nVehEntered="2"/>
    <interval begin="90.00" end="120.00" id="o2" nVehContrib="2" flow="240.00" occupancy="79.72" speed="0.24" length="5.00" nVehEntered="2"/>
    <interval begin="90.00" end="120.00" id="o3" nVehContrib="1" flow="120.00" occupancy="4.97" speed="12.01" length="5.00" nVehEntered="2"/>
    <interval begin="120.00" end="150.00" id="i0" nVehContrib="0" flow="0.00" occupancy="0.00" speed="-1.00" length="-1.00" nVehEntered="0"/>
    <interval begin="120.00" end="150.00" id="i1" nVehContrib="2" flow="240.00" occupancy="2.04" speed="16.36" length="5.00" nVehEntered="2"/>
    <interval begin="120.00" end="150.00" id="i2" nVehContrib="0" flow="0.00" occupancy="0.00" speed="-1.00" length="-1.00" nVehEntered="0"/>
    <interval begin="120.00" end="150.00" id="i3" nVehContrib="2" flow="240.00" occupancy="2.00" speed="16.63" length="5.00" nVehEntered="2"/>
    <interval begin="120.00" end="150.00" id="o0" nVehContrib="1" flow="120.00" occupancy="41.86" speed="0.40" length="5.00" nVehEntered="1"/>
    <interval begin="120.00" end="150.00" id="o1" nVehContrib="2" flow="240.00" occupancy="75.33" speed="0.32" length="5.00" nVehEntered="2"/>
    <interval begin="120.00" end="150.00" id="o2" nVehContrib="1" flow="120.00" occupancy="89.94" speed="0.27" length="5.00" nVehEntered="1"/>
    <interval begin="120.00" end="150.00" id="o3" nVehContrib="2" flow="240.00" occupancy="57.93" speed="0.71" length="5.00" nVehEntered="2"/>
    <interval begin="150.00" end="180.00" id="i0" nVehContrib="1" flow="120.00" occupancy="1.02" speed="16.33" length="5.00" nVehEntered="1"/>
    <interval begin="150.00" end="180.00" id="i1" nVehContrib="2" flow="240.00" occupancy="2.03" speed="16.43" length="5.00" nVehEntered="2"/>
    <interval begin="150.00" end="180.00" id="i2" nVehContrib="2" flow="240.00" occupancy="2.03" speed="16.43" length="5.00" nVehEntered="2"/>
    <interval begin="150.00" end="180.00" id="i3" nVehContrib="1" flow="120.00" occupancy="1.01" speed="16.55" length="5.00" nVehEntered="1"/>
    <interval begin="150.00" end="180.00" id="o0" nVehContrib="1" flow="120.00" occupancy="3.13" speed="5.33" length="5.00" nVehEntered="1"/>
    <interval begin="150.00" end="180.00" id="o1" nVehContrib="1" flow="120.00" occupancy="87.95" speed="0.18" length="5.00" nVehEntered="0"/>
    <interval begin="150.00" end="180.00" id="o2" nVehContrib="2" flow="240.00" occupancy="80.83" speed="0.38" length="5.00" nVehEntered="2"/>
    <interval begin="150.00" end="180.00" id="o3" nVehContrib="1" flow="120.00" occupancy="89.53" speed="0.18" length="5.00" nVehEntered="1"/>
    <interval begin="180.00" end="210.00" id="i0" nVehContrib="1" flow="120.00" occupancy="1.00" speed="16.65" length="5.00" nVehEntered="1"/>
    <interval begin="180.00" end="210.00" id="i1" nVehContrib="0" flow="0.00" occupancy="0.00" speed="-1.00" length="-1.00" nVehEntered="0"/>
    <interval begin="180.00" end="210.00" id="i2" nVehContrib="1" flow="120.00" occupancy="1.00" speed="16.65" length="5.00" nVehEntered="1"/>
    <interval begin="180.00" end="210.00" id="i3" nVehContrib="2" flow="240.00" occupancy="2.02" speed="16.47" length="5.00" nVehEntered="2"/>
    <interval begin="180.00" end="210.00" id="o0" nVehContrib="1" flow="120.00" occupancy="1.11" speed="15.06" length="5.00" nVehEntered="1"/>
    <interval begin="180.00" end="210.00" id="o1" nVehContrib="0" flow="0.00" occupancy="99.66" speed="-1.00" length="-1.00" nVehEntered="1"/>
    <interval begin="180.00" end="210.00" id="o2" nVehContrib="2" flow="240.00" occupancy="81.47" speed="1.26" length="5.00" nVehEntered="2"/>
    <interval begin="180.00" end="210.00" id="o3" nVehContrib="0" flow="0.00" occupancy="100.00" speed="-1.00" length="-1.00" nVehEntered="0"/>
    <interval begin="210.00" end="240.00" id="i0" nVehContrib="3" flow="360.00" occupancy="3.02" speed="16.58" length="5.00" nVehEntered="3"/>
    <interval begin="210.00" end="240.00" id="i1" nVehContrib="0" flow="0.00" occupancy="0.00" speed="-1.00" length="-1.00" nVehEntered="0"/>
    <interval begin="210.00" end="240.00" id="i2" nVehContrib="2" flow="240.00" occupancy="2.03" speed="16.39" length="5.00" nVehEntered="2"/>
    <interval begin="210.00" end="240.00" id="i3" nVehContrib="3" flow="360.00" occupancy="3.03" speed="16.51" length="5.00" nVehEntered="3"/>
    <interval begin="210.00" end="240.00" id="o0" nVehContrib="0" flow="0.00" occupancy="23.87" speed="-1.00" length="-1.00" nVehEntered="1"/>
    <interval begin="210.00" end="240.00" id="o1" nVehContrib="2" flow="240.00" occupancy="64.35" speed="0.24" length="5.00" nVehEntered="1"/>
    <interval begin="210.00" end="240.00" id="o2" nVehContrib="1" flow="120.00" occupancy="98.43" speed="0.16" length="5.00" nVehEntered="0"/>
    <interval begin="210.00" end="240.00" id="o3" nVehContrib="1" flow="120.00" occupancy="89.76" speed="0.14" length="5.00" nVehEntered="1"/>
    <interval begin="240.00" end="270.00" id="i0" nVehContrib="1" flow="120.00" occupancy="1.01" speed="16.55" length="5.00" nVehEntered="1"/>
    <interval begin="240.00" end="270.00" id="i1" nVehContrib="2" flow="240.00" occupancy="2.03" speed="16.40" length="5.00" nVehEntered="2"/>
    <interval begin="240.00" end="270.00" id="i2" nVehContrib="2" flow="240.00" occupancy="2.03" speed="16.42" length="5.00" nVehEntered="2"/>
    <interval begin="240.00" end="270.00" id="i3" nVehContrib="2" flow="240.00" occupancy="2.01" speed="16.56" length="5.00" nVehEntered="2"/>
    <interval begin="240.00" end="270.00" id="o0" nVehContrib="2" flow="240.00" occupancy="80.49" speed="0.52" length="5.00" nVehEntered="2"/>
    <interval begin="240.00" end="270.00" id="o1" nVehContrib="0" flow="0.00" occupancy="58.88" speed="-1.00" length="-1.00" nVehEntered="1"/>
    <interval begin="240.00" end="270.00" id="o2" nVehContrib="1" flow="120.00" occupancy="81.36" speed="0.34" length="5.00" nVehEntered="2"/>
    <interval begin="240.00" end="270.00" id="o3" nVehContrib="1" flow="120.00" occupancy="89.08" speed="0.16" length="5.00" nVehEntered="1"/>
    <interval begin="270.00" end="300.00" id="i0" nVehContrib="3" flow="360.00" occupancy="3.04" speed="16.46" length="5.00" nVehEntered="3"/>
    <interval begin="270.00" end="300.00" id="i1" nVehContrib="0" flow="0.00" occupancy="0.00" speed="-1.00" length="-1.00" nVehEntered="0"/>
    <interval begin="270.00" end="300.00" id="i2" nVehContrib="4" flow="480.00" occupancy="4.06" speed="16.43" length="5.00" nVehEntered="4"/>
    <interval begin="270.00" end="300.00" id="i3" nVehContrib="2" flow="240.00" occupancy="2.02" speed="16.52" length="5.00" nVehEntered="2"/>
    <interval begin="270.00" end="300.00" id="o0" nVehContrib="2" flow="240.00" occupancy="78.16" speed="0.40" length="5.00" nVehEntered="2"/>
    <interval begin="270.00" end="300.00" id="o1" nVehContrib="1" flow="120.00" occupancy="89.07" speed="0.18" length="5.00" nVehEntered="1"/>
    <interval begin="270.00" end="300.00" id="o2" nVehContrib="2" flow="240.00" occupancy="80.70" speed="0.40" length="5.00" nVehEntered="2"/>
    <interval begin="270.00" end="300.00" id="o3" nVehContrib="1" flow="120.00" occupancy="88.77" speed="0.18" length="5.00" nVehEntered="1"/>
    <interval begin="300.00" end="330.00" id="i0" nVehContrib="0" flow="0.00" occupancy="0.00" speed="-1.00" length="-1.00" nVehEntered="0"/>
    <interval begin="300.00" end="330.00" id="i1" nVehContrib="2" flow="240.00" occupancy="2.02" speed="16.47" length="5.00" nVehEntered="2"/>
    <interval begin="300.00" end="330.00" id="i2" nVehContrib="0" flow="0.00" occupancy="0.00" speed="-1.00" length="-1.00" nVehEntered="0"/>
    <interval begin="300.00" end="330.00" id="i3" nVehContrib="1" flow="120.00" occupancy="1.01" speed="16.51" length="5.00" nVehEntered="1"/>
    <interval begin="300.00" end="330.00" id="o0" nVehContrib="2" flow="240.00" occupancy="80.72" speed="0.41" length="5.00" nVehEntered="2"/>
    <interval begin="300.00" end="330.00" id="o1" nVehContrib="1" flow="120.00" occupancy="88.02" speed="0.18" length="5.00" nVehEntered="1"/>
    <interval begin="300.00" end="330.00" id="o2" nVehContrib="2" flow="240.00" occupancy="80.68" speed="0.40" length="5.00" nVehEntered="2"/>
    <interval begin="300.00" end="330.00" id="o3" nVehContrib="1" flow="120.00" occupancy="88.65" speed="0.18" length="5.00" nVehEntered="1"/>
    <interval begin="330.00" end="360.00" id="i0" nVehContrib="3" flow="360.00" occupancy="3.05" speed="16.42" length="5.00" nVehEntered="3"/>
    <interval begin="330.00" end="360.00" id="i1" nVehContrib="1" flow="120.00" occupancy="1.01" speed="16.51" length="5.00" nVehEntered="1"/>
    <interval begin="330.00" end="360.00" id="i2" nVehContrib="2" flow="240.00" occupancy="2.02" speed="16.52" length="5.00" nVehEntered="2"/>
    <interval begin="330.00" end="360.00" id="i3" nVehContrib="0" flow="0.00" occupancy="0.00" speed="-1.00" length="-1.00" nVehEntered="0"/>
    <interval begin="330.00" end="360.00" id="o0" nVehContrib="2" flow="240.00" occupancy="62.26" speed="0.39" length="5.00" nVehEntered="2"/>
    <interval begin="330.00" end="360.00" id="o1" nVehContrib="1" flow="120.00" occupancy="89.15" speed="0.17" length="5.00" nVehEntered="1"/>
    <interval begin="330.00" end="360.00" id="o2" nVehContrib="2" flow="240.00" occupancy="79.58" speed="0.34" length="5.00" nVehEntered="2"/>
    <interval begin="330.00" end="360.00" id="o3" nVehContrib="1" flow="120.00" occupancy="88.04" speed="0.17" length="5.00" nVehEntered="1"/>
    <interval begin="360.00" end="390.00" id="i0" nVehContrib="3" flow="360.00" occupancy="3.05" speed="16.38" length="5.00" nVehEntered="3"/>
    <interval begin="360.00" end="390.00" id="i1" nVehContrib="0" flow="0.00" occupancy="0.00" speed="-1.00" length="-1.00" nVehEntered="0"/>
    <interval begin="360.00" end="390.00" id="i2" nVehContrib="1" flow="120.00" occupancy="1.02" speed="16.41" length="5.00" nVehEntered="1"/>
    <interval begin="360.00" end="390.00" id="i3" nVehContrib="2" flow="240.00" occupancy="2.02" speed="16.46" length="5.00" nVehEntered="2"/>
    <interval begin="360.00" end="390.00" id="o0" nVehContrib="1" flow="120.00" occupancy="89.77" speed="0.33" length="5.00" nVehEntered="1"/>
    <interval begin="360.00" end="390.00" id="o1" nVehContrib="1" flow="120.00" occupancy="87.79" speed="0.15" length="5.00" nVehEntered="1"/>
    <interval begin="360.00" end="390.00" id="o2" nVehContrib="1" flow="120.00" occupancy="89.66" speed="0.33" length="5.00" nVehEntered="1"/>
    <interval begin="360.00" end="390.00" id="o3" nVehContrib="1" flow="120.00" occupancy="88.95" speed="0.15" length="5.00" nVehEntered="1"/>
    <interval begin="390.00" end="420.00" id="i0" nVehContrib="0" flow="0.00" occupancy="0.00" speed="-1.00" length="-1.00" nVehEntered="0"/>
    <interval begin="390.00" end="420.00" id="i1" nVehContrib="1" flow="120.00" occupancy="1.01" speed="16.50" length="5.00" nVehEntered="1"/>
    <interval begin="390.00" end="420.00" id="i2" nVehContrib="1" flow="120.00" occupancy="1.02" speed="16.38" length="5.00" nVehEntered="1"/>
    <interval begin="390.00" end="420.00" id="i3" nVehContrib="1" flow="120.00" occupancy="1.02" speed="16.42" length="5.00" nVehEntered="1"/>
    <interval begin="390.00" end="420.00" id="o0" nVehContrib="4" flow="480.00" occupancy="67.50" speed="1.62" length="5.00" nVehEntered="3"/>
    <interval begin="390.00" end="420.00" id="o1" nVehContrib="1" flow="120.00" occupancy="90.32" speed="0.22" length="5.00" nVehEntered="1"/>
    <interval begin="390.00" end="420.00" id="o2" nVehContrib="4" flow="480.00" occupancy="19.56" speed="4.70" length="5.00" nVehEntered="3"/>
    <interval begin="390.00" end="420.00" id="o3" nVehContrib="1" flow="120.00" occupancy="89.45" speed="0.22" length="5.00" nVehEntered="1"/>
    <interval begin="420.00" end="450.00" id="i0" nVehContrib="1" flow="120.00" occupancy="1.01" speed="16.52" length="5.00" nVehEntered="1"/>
    <interval begin="420.00" end="450.00" id="i1" nVehContrib="0" flow="0.00" occupancy="0.00" speed="-1.00" length="-1.00" nVehEntered="0"/>
    <interval begin="420.00" end="450.00" id="i2" nVehContrib="2" flow="240.00" occupancy="2.04" speed="16.32" length="5.00" nVehEntered="2"/>
    <interval begin="420.00" end="450.00" id="i3" nVehContrib="2" flow="240.00" occupancy="2.03" speed="16.44" length="5.00" nVehEntered="2"/>
    <interval begin="420.00" end="450.00" id="o0" nVehContrib="1" flow="120.00" occupancy="2.72" speed="6.13" length="5.00" nVehEntered="1"/>
    <interval begin="420.00" end="450.00" id="o1" nVehContrib="2" flow="240.00" occupancy="59.63" speed="0.37" length="5.00" nVehEntered="1"/>
    <interval begin="420.00" end="450.00" id="o2" nVehContrib="1" flow="120.00" occupancy="37.30" speed="0.45" length="5.00" nVehEntered="1"/>
    <interval begin="420.00" end="450.00" id="o3" nVehContrib="2" flow="240.00" occupancy="79.94" speed="0.37" length="5.00" nVehEntered="2"/>
    <interval begin="450.00" end="480.00" id="i0" nVehContrib="0" flow="0.00" occupancy="0.00" speed="-1.00" length="-1.00" nVehEntered="0"/>
    <interval begin="450.00" end="480.00" id="i1" nVehContrib="3" flow="360.00" occupancy="3.03" speed="16.50" length="5.00" nVehEntered="3"/>
    <interval begin="450.00" end="480.00" id="i2" nVehContrib="2" flow="240.00" occupancy="2.03" speed="16.40" length="5.00" nVehEntered="2"/>
    <interval begin="450.00" end="480.00" id="i3" nVehContrib="1" flow="120.00" occupancy="1.01" speed="16.43" length="5.00" nVehEntered="1"/>
    <interval begin="450.00" end="480.00" id="o0" nVehContrib="0" flow="0.00" occupancy="0.00" speed="-1.00" length="-1.00" nVehEntered="0"/>
    <interval begin="450.00" end="480.00" id="o1" nVehContrib="0" flow="0.00" occupancy="13.62" speed="-1.00" length="-1.00" nVehEntered="1"/>
    <interval begin="450.00" end="480.00" id="o2" nVehContrib="0" flow="0.00" occupancy="37.58" speed="-1.00" length="-1.00" nVehEntered="1"/>
    <interval begin="450.00" end="480.00" id="o3" nVehContrib="1" flow="120.00" occupancy="90.11" speed="0.42" length="5.00" nVehEntered="1"/>
    <interval begin="480.00" end="510.00" id="i0" nVehContrib="2" flow="240.00" occupancy="2.01" speed="16.58" length="5.00" nVehEntered="2"/>
    <interval begin="480.00" end="510.00" id="i1" nVehContrib="1" flow="120.00" occupancy="1.00" speed="16.63" length="5.00" nVehEntered="1"/>
    <interval begin="480.00" end="510.00" id="i2" nVehContrib="1" flow="120.00" occupancy="1.02" speed="16.42" length="5.00" nVehEntered="1"/>
    <interval begin="480.00" end="510.00" id="i3" nVehContrib="1" flow="120.00" occupancy="1.01" speed="16.53" length="5.00" nVehEntered="1"/>
    <interval begin="480.00" end="510.00" id="o0" nVehContrib="1" flow="120.00" occupancy="43.58" speed="1.65" length="5.00" nVehEntered="2"/>
    <interval begin="480.00" end="510.00" id="o1" nVehContrib="1" flow="120.00" occupancy="87.84" speed="0.17" length="5.00" nVehEntered="1"/>
    <interval begin="480.00" end="510.00" id="o2" nVehContrib="2" flow="240.00" occupancy="80.02" speed="0.40" length="5.00" nVehEntered="2"/>
    <interval begin="480.00" end="510.00" id="o3" nVehContrib="1" flow="120.00" occupancy="40.79" speed="0.16" length="5.00" nVehEntered="1"/>
    <interval begin="510.00" end="540.00" id="i0" nVehContrib="3" flow="360.00" occupancy="3.02" speed="16.57" length="5.00" nVehEntered="3"/>
    <interval begin="510.00" end="540.00" id="i1" nVehContrib="0" flow="0.00" occupancy="0.00" speed="-1.00" length="-1.00" nVehEntered="0"/>
    <interval begin="510.00" end="540.00" id="i2" nVehContrib="0" flow="0.00" occupancy="0.00" speed="-1.00" length="-1.00" nVehEntered="0"/>
    <interval begin="510.00" end="540.00" id="i3" nVehContrib="1" flow="120.00" occupancy="1.01" speed="16.49" length="5.00" nVehEntered="1"/>
    <interval begin="510.00" end="540.00" id="o0" nVehContrib="1" flow="120.00" occupancy="66.06" speed="0.17" length="5.00" nVehEntered="1"/>
    <interval begin="510.00" end="540.00" id="o1" nVehContrib="1" flow="120.00" occupancy="90.26" speed="0.38" length="5.00" nVehEntered="1"/>
    <interval begin="510.00" end="540.00" id="o2" nVehContrib="1" flow="120.00" occupancy="88.25" speed="0.17" length="5.00" nVehEntered="1"/>
    <interval begin="510.00" end="540.00" id="o3" nVehContrib="1" flow="120.00" occupancy="90.02" speed="0.36" length="5.00" nVehEntered="1"/>
    <interval begin="540.00" end="570.00" id="i0" nVehContrib="3" flow="360.00" occupancy="3.07" speed="16.31" length="5.00" nVehEntered="3"/>
    <interval begin="540.00" end="570.00" id="i1" nVehContrib="2" flow="240.00" occupancy="2.03" speed="16.39" length="5.00" nVehEntered="2"/>
    <interval begin="540.00" end="570.00" id="i2" nVehContrib="1" flow="120.00" occupancy="1.02" speed="16.40" length="5.00" nVehEntered="1"/>
    <interval begin="540.00" end="570.00" id="i3" nVehContrib="1" flow="120.00" occupancy="1.01" speed="16.49" length="5.00" nVehEntered="1"/>
    <interval begin="540.00" end="570.00" id="o0" nVehContrib="2" flow="240.00" occupancy="69.96" speed="0.47" length="5.00" nVehEntered="1"/>
    <interval begin="540.00" end="570.00" id="o1" nVehContrib="1" flow="120.00" occupancy="90.06" speed="0.31" length="5.00" nVehEntered="1"/>
    <interval begin="540.00" end="570.00" id="o2" nVehContrib="1" flow="120.00" occupancy="85.09" speed="0.31" length="5.00" nVehEntered="1"/>
    <interval begin="540.00" end="570.00" id="o3" nVehContrib="2" flow="240.00" occupancy="46.81" speed="0.33" length="5.00" nVehEntered="1"/>
    <interval begin="570.00" end="600.00" id="i0" nVehContrib="1" flow="120.00" occupancy="1.01" speed="16.57" length="5.00" nVehEntered="1"/>
    <interval begin="570.00" end="600.00" id="i1" nVehContrib="1" flow="120.00" occupancy="1.02" speed="16.37" length="5.00" nVehEntered="1"/>
    <interval begin="570.00" end="600.00" id="i2" nVehContrib="0" flow="0.00" occupancy="0.00" speed="-1.00" length="-1.00" nVehEntered="0"/>
    <interval begin="570.00" end="600.00" id="i3" nVehContrib="0" flow="0.00" occupancy="0.00" speed="-1.00" length="-1.00" nVehEntered="0"/>
    <interval begin="570.00" end="600.00" id="o0" nVehContrib="1" flow="120.00" occupancy="40.55" speed="0.46" length="5.00" nVehEntered="2"/>
    <interval begin="570.00" end="600.00" id="o1" nVehContrib="1" flow="120.00" occupancy="87.16" speed="0.18" length="5.00" nVehEntered="1"/>
    <interval begin="570.00" end="600.00" id="o2" nVehContrib="1" flow="120.00" occupancy="37.67" speed="0.18" length="5.00" nVehEntered="0"/>
    <interval begin="570.00" end="600.00" id="o3" nVehContrib="0" flow="0.00" occupancy="88.19" speed="-1.00" length="-1.00" nVehEntered="1"/>
    <interval begin="600.00" end="630.00" id="i0" nVehContrib="3" flow="360.00" occupancy="3.04" speed="16.47" length="5.00" nVehEntered="3"/>
    <interval begin="600.00" end="630.00" id="i1" nVehContrib="1" flow="120.00" occupancy="1.00" speed="16.66" length="5.00" nVehEntered="1"/>
    <interval begin="600.00" end="630.00" id="i2" nVehContrib="1" flow="120.00" occupancy="1.02" speed="16.36" length="5.00" nVehEntered="1"/>
    <interval begin="600.00" end="630.00" id="i3" nVehContrib="2" flow="240.00" occupancy="2.03" speed="16.44" length="5.00" nVehEntered="2"/>
    <interval begin="600.00" end="630.00" id="o0" nVehContrib="1" flow="120.00" occupancy="89.18" speed="0.34" length="5.00" nVehEntered="1"/>
    <interval begin="600.00" end="630.00" id="o1" nVehContrib="2" flow="240.00" occupancy="78.01" speed="0.27" length="5.00" nVehEntered="2"/>
    <interval begin="600.00" end="630.00" id="o2" nVehContrib="0" flow="0.00" occupancy="0.00" speed="-1.00" length="-1.00" nVehEntered="0"/>
    <interval begin="600.00" end="630.00" id="o3" nVehContrib="2" flow="240.00" occupancy="80.10" speed="0.26" length="5.00" nVehEntered="2"/>
    <interval begin="630.00" end="660.00" id="i0" nVehContrib="2" flow="240.00" occupancy="2.04" speed="16.37" length="5.00" nVehEntered="2"/>
    <interval begin="630.00" end="660.00" id="i1" nVehContrib="3" flow="360.00" occupancy="3.01" speed="16.62" length="5.00" nVehEntered="3"/>
    <interval begin="630.00" end="660.00" id="i2" nVehContrib="3" flow="360.00" occupancy="3.02" speed="16.54" length="5.00" nVehEntered="3"/>
    <interval begin="630.00" end="660.00" id="i3" nVehContrib="1" flow="120.00" occupancy="1.01" speed="16.46" length="5.00" nVehEntered="1"/>
    <interval begin="630.00" end="660.00" id="o0" nVehContrib="2" flow="240.00" occupancy="80.17" speed="0.37" length="5.00" nVehEntered="2"/>
    <interval begin="630.00" end="660.00" id="o1" nVehContrib="1" flow="120.00" occupancy="33.22" speed="0.34" length="5.00" nVehEntered="0"/>
    <interval begin="630.00" end="660.00" id="o2" nVehContrib="2" flow="240.00" occupancy="34.42" speed="1.57" length="5.00" nVehEntered="2"/>
    <interval begin="630.00" end="660.00" id="o3" nVehContrib="1" flow="120.00" occupancy="95.16" speed="0.15" length="5.00" nVehEntered="0"/>
    <interval begin="660.00" end="690.00" id="i0" nVehContrib="0" flow="0.00" occupancy="0.00" speed="-1.00" length="-1.00" nVehEntered="0"/>
    <interval begin="660.00" end="690.00" id="i1" nVehContrib="1" flow="120.00" occupancy="1.02" speed="16.41" length="5.00" nVehEntered="1"/>
    <interval begin="660.00" end="690.00" id="i2" nVehContrib="1" flow="120.00" occupancy="1.00" speed="16.64" length="5.00" nVehEntered="1"/>
    <interval begin="660.00" end="690.00" id="i3" nVehContrib="0" flow="0.00" occupancy="0.00" speed="-1.00" length="-1.00" nVehEntered="0"/>
    <interval begin="660.00" end="690.00" id="o0" nVehContrib="1" flow="120.00" occupancy="89.64" speed="0.23" length="5.00" nVehEntered="1"/>
    <interval begin="660.00" end="690.00" id="o1" nVehContrib="1" flow="120.00" occupancy="88.02" speed="2.32" length="5.00" nVehEntered="2"/>
    <interval begin="660.00" end="690.00" id="o2" nVehContrib="0" flow="0.00" occupancy="51.03" speed="-1.00" length="-1.00" nVehEntered="1"/>
    <interval begin="660.00" end="690.00" id="o3" nVehContrib="1" flow="120.00" occupancy="86.05" speed="2.49" length="5.00" nVehEntered="2"/>
    <interval begin="690.00" end="720.00" id="i0" nVehContrib="2" flow="240.00" occupancy="2.04" speed="16.37" length="5.00" nVehEntered="2"/>
    <interval begin="690.00" end="720.00" id="i1" nVehContrib="0" flow="0.00" occupancy="0.00" speed="-1.00" length="-1.00" nVehEntered="0"/>
    <interval begin="690.00" end="720.00" id="i2" nVehContrib="2" flow="240.00" occupancy="2.02" speed="16.47" length="5.00" nVehEntered="2"/>
    <interval begin="690.00" end="720.00" id="i3" nVehContrib="0" flow="0.00" occupancy="0.00" speed="-1.00" length="-1.00" nVehEntered="0"/>
    <interval begin="690.00" end="720.00" id="o0" nVehContrib="2" flow="240.00" occupancy="79.70" speed="0.37" length="5.00" nVehEntered="2"/>
    <interval begin="690.00" end="720.00" id="o1" nVehContrib="2" flow="240.00" occupancy="78.16" speed="0.27" length="5.00" nVehEntered="2"/>
    <interval begin="690.00" end="720.00" id="o2" nVehContrib="2" flow="240.00" occupancy="78.09" speed="0.37" length="5.00" nVehEntered="2"/>
    <interval begin="690.00" end="720.00" id="o3" nVehContrib="2" flow="240.00" occupancy="80.11" speed="0.26" length="5.00" nVehEntered="2"/>
    <interval begin="720.00" end="750.00" id="i0" nVehContrib="2" flow="240.00" occupancy="2.01" speed="16.54" length="5.00" nVehEntered="2"/>
    <interval begin="720.00" end="750.00" id="i1" nVehContrib="1" flow="120.00" occupancy="1.01" speed="16.43" length="5.00" nVehEntered="1"/>
    <interval begin="720.00" end="750.00" id="i2" nVehContrib="0" flow="0.00" occupancy="0.09" speed="-1.00" length="-1.00" nVehEntered="1"/>
    <interval begin="720.00" end="750.00" id="i3" nVehContrib="1" flow="120.00" occupancy="1.02" speed="16.41" length="5.00" nVehEntered="1"/>
    <interval begin="720.00" end="750.00" id="o0" nVehContrib="3" flow="360.00" occupancy="74.19" speed="1.07" length="5.00" nVehEntered="2"/>
    <interval begin="720.00" end="750.00" id="o1" nVehContrib="1" flow="120.00" occupancy="90.13" speed="0.31" length="5.00" nVehEntered="1"/>
    <interval begin="720.00" end="750.00" id="o2" nVehContrib="3" flow="360.00" occupancy="74.00" speed="1.04" length="5.00" nVehEntered="2"/>
    <interval begin="720.00" end="750.00" id="o3" nVehContrib="1" flow="120.00" occupancy="89.66" speed="0.31" length="5.00" nVehEntered="1"/>
    <interval begin="750.00" end="780.00" id="i0" nVehContrib="3" flow="360.00" occupancy="3.04" speed="16.44" length="5.00" nVehEntered="3"/>
    <interval begin="750.00" end="780.00" id="i1" nVehContrib="2" flow="240.00" occupancy="2.02" speed="16.53" length="5.00" nVehEntered="2"/>
    <interval begin="750.00" end="780.00" id="i2" nVehContrib="3" flow="360.00" occupancy="2.94" speed="16.48" length="5.00" nVehEntered="2"/>