<?xml version="1.0" encoding="UTF-8"?>

<!-- generated on Thu Sep  7 14:16:00 2017 by SUMO gui Version 0.30.0
<?xml version="1.0" encoding="UTF-8"?>

<configuration xmlns:xsi="http://www.w3.org/2001/XMLSchema-instance" xsi:noNamespaceSchemaLocation="http://sumo.dlr.de/xsd/sumoConfiguration.xsd">

    <input>
        <net-file value="data/cross.net.xml"/>
        <route-files value="data/cross.rou.xml"/>
        <additional-files value="data/cross1.det.xml"/>
    </input>

    <output>
        <tripinfo-output value="tripinfo.xml"/>
    </output>

    <time>
        <begin value="0"/>
    </time>

    <report>
        <verbose value="true"/>
        <no-step-log value="true"/>
    </report>

    <traci_server>
        <remote-port value="52622"/>
    </traci_server>

    <gui_only>
        <gui-settings-file value="data/gui.settings.xml"/>
    </gui_only>

</configuration>
-->

<detector xmlns:xsi="http://www.w3.org/2001/XMLSchema-instance" xsi:noNamespaceSchemaLocation="http://sumo.dlr.de/xsd/det_e1_file.xsd">
    <interval begin="0.00" end="30.00" id="i0" nVehContrib="0" flow="0.00" occupancy="0.00" speed="-1.00" length="-1.00" nVehEntered="0"/>
    <interval begin="0.00" end="30.00" id="i1" nVehContrib="0" flow="0.00" occupancy="0.00" speed="-1.00" length="-1.00" nVehEntered="0"/>
    <interval begin="0.00" end="30.00" id="i2" nVehContrib="0" flow="0.00" occupancy="0.00" speed="-1.00" length="-1.00" nVehEntered="0"/>
    <interval begin="0.00" end="30.00" id="i3" nVehContrib="0" flow="0.00" occupancy="0.00" speed="-1.00" length="-1.00" nVehEntered="0"/>
    <interval begin="0.00" end="30.00" id="o0" nVehContrib="0" flow="0.00" occupancy="0.00" speed="-1.00" length="-1.00" nVehEntered="0"/>
    <interval begin="0.00" end="30.00" id="o1" nVehContrib="0" flow="0.00" occupancy="0.00" speed="-1.00" length="-1.00" nVehEntered="0"/>
    <interval begin="0.00" end="30.00" id="o2" nVehContrib="0" flow="0.00" occupancy="0.00" speed="-1.00" length="-1.00" nVehEntered="0"/>
    <interval begin="0.00" end="30.00" id="o3" nVehContrib="0" flow="0.00" occupancy="0.00" speed="-1.00" length="-1.00" nVehEntered="0"/>
    <interval begin="30.00" end="60.00" id="i0" nVehContrib="2" flow="240.00" occupancy="2.03" speed="16.42" length="5.00" nVehEntered="2"/>
    <interval begin="30.00" end="60.00" id="i1" nVehContrib="0" flow="0.00" occupancy="0.00" speed="-1.00" length="-1.00" nVehEntered="0"/>
    <interval begin="30.00" end="60.00" id="i2" nVehContrib="1" flow="120.00" occupancy="1.00" speed="16.66" length="5.00" nVehEntered="1"/>
    <interval begin="30.00" end="60.00" id="i3" nVehContrib="0" flow="0.00" occupancy="0.00" speed="-1.00" length="-1.00" nVehEntered="0"/>
    <interval begin="30.00" end="60.00" id="o0" nVehContrib="0" flow="0.00" occupancy="23.77" speed="-1.00" length="-1.00" nVehEntered="1"/>
    <interval begin="30.00" end="60.00" id="o1" nVehContrib="0" flow="0.00" occupancy="0.00" speed="-1.00" length="-1.00" nVehEntered="0"/>
    <interval begin="30.00" end="60.00" id="o2" nVehContrib="0" flow="0.00" occupancy="30.90" speed="-1.00" length="-1.00" nVehEntered="1"/>
    <interval begin="30.00" end="60.00" id="o3" nVehContrib="0" flow="0.00" occupancy="0.00" speed="-1.00" length="-1.00" nVehEntered="0"/>
    <interval begin="60.00" end="90.00" id="i0" nVehContrib="1" flow="120.00" occupancy="1.02" speed="16.41" length="5.00" nVehEntered="1"/>
    <interval begin="60.00" end="90.00" id="i1" nVehContrib="0" flow="0.00" occupancy="0.00" speed="-1.00" length="-1.00" nVehEntered="0"/>
    <interval begin="60.00" end="90.00" id="i2" nVehContrib="4" flow="480.00" occupancy="4.06" speed="16.43" length="5.00" nVehEntered="4"/>
    <interval begin="60.00" end="90.00" id="i3" nVehContrib="0" flow="0.00" occupancy="0.00" speed="-1.00" length="-1.00" nVehEntered="0"/>
    <interval begin="60.00" end="90.00" id="o0" nVehContrib="2" flow="240.00" occupancy="9.82" speed="1.57" length="5.00" nVehEntered="1"/>
    <interval begin="60.00" end="90.00" id="o1" nVehContrib="0" flow="0.00" occupancy="0.00" speed="-1.00" length="-1.00" nVehEntered="0"/>
    <interval begin="60.00" end="90.00" id="o2" nVehContrib="2" flow="240.00" occupancy="10.88" speed="1.33" length="5.00" nVehEntered="1"/>
    <interval begin="60.00" end="90.00" id="o3" nVehContrib="0" flow="0.00" occupancy="0.00" speed="-1.00" length="-1.00" nVehEntered="0"/>
    <interval begin="90.00" end="120.00" id="i0" nVehContrib="1" flow="120.00" occupancy="1.00" speed="16.67" length="5.00" nVehEntered="1"/>
    <interval begin="90.00" end="120.00" id="i1" nVehContrib="0" flow="0.00" occupancy="0.00" speed="-1.00" length="-1.00" nVehEntered="0"/>
    <interval begin="90.00" end="120.00" id="i2" nVehContrib="4" flow="480.00" occupancy="4.09" speed="16.31" length="5.00" nVehEntered="4"/>
    <interval begin="90.00" end="120.00" id="i3" nVehContrib="0" flow="0.00" occupancy="0.00" speed="-1.00" length="-1.00" nVehEntered="0"/>
    <interval begin="90.00" end="120.00" id="o0" nVehContrib="1" flow="120.00" occupancy="58.48" speed="0.28" length="5.00" nVehEntered="1"/>
    <interval begin="90.00" end="120.00" id="o1" nVehContrib="0" flow="0.00" occupancy="0.00" speed="-1.00" length="-1.00" nVehEntered="0"/>
    <interval begin="90.00" end="120.00" id="o2" nVehContrib="1" flow="120.00" occupancy="86.43" speed="0.28" length="5.00" nVehEntered="2"/>
    <interval begin="90.00" end="120.00" id="o3" nVehContrib="0" flow="0.00" occupancy="0.00" speed="-1.00" length="-1.00" nVehEntered="0"/>
    <interval begin="120.00" end="150.00" id="i0" nVehContrib="1" flow="120.00" occupancy="1.02" speed="16.33" length="5.00" nVehEntered="1"/>
    <interval begin="120.00" end="150.00" id="i1" nVehContrib="0" flow="0.00" occupancy="0.00" speed="-1.00" length="-1.00" nVehEntered="0"/>
    <interval begin="120.00" end="150.00" id="i2" nVehContrib="1" flow="120.00" occupancy="1.01" speed="16.55" length="5.00" nVehEntered="1"/>
    <interval begin="120.00" end="150.00" id="i3" nVehContrib="0" flow="0.00" occupancy="0.00" speed="-1.00" length="-1.00" nVehEntered="0"/>
    <interval begin="120.00" end="150.00" id="o0" nVehContrib="1" flow="120.00" occupancy="2.48" speed="6.73" length="5.00" nVehEntered="1"/>
    <interval begin="120.00" end="150.00" id="o1" nVehContrib="0" flow="0.00" occupancy="0.00" speed="-1.00" length="-1.00" nVehEntered="0"/>
    <interval begin="120.00" end="150.00" id="o2" nVehContrib="1" flow="120.00" occupancy="90.00" speed="0.26" length="5.00" nVehEntered="1"/>
    <interval begin="120.00" end="150.00" id="o3" nVehContrib="0" flow="0.00" occupancy="0.00" speed="-1.00" length="-1.00" nVehEntered="0"/>
    <interval begin="150.00" end="180.00" id="i0" nVehContrib="3" flow="360.00" occupancy="3.04" speed="16.45" length="5.00" nVehEntered="3"/>
    <interval begin="150.00" end="180.00" id="i1" nVehContrib="0" flow="0.00" occupancy="0.00" speed="-1.00" length="-1.00" nVehEntered="0"/>
    <interval begin="150.00" end="180.00" id="i2" nVehContrib="3" flow="360.00" occupancy="3.04" speed="16.42" length="5.00" nVehEntered="3"/>
    <interval begin="150.00" end="180.00" id="i3" nVehContrib="0" flow="0.00" occupancy="0.00" speed="-1.00" length="-1.00" nVehEntered="0"/>
    <interval begin="150.00" end="180.00" id="o0" nVehContrib="1" flow="120.00" occupancy="34.57" speed="8.60" length="5.00" nVehEntered="2"/>
    <interval begin="150.00" end="180.00" id="o1" nVehContrib="0" flow="0.00" occupancy="0.00" speed="-1.00" length="-1.00" nVehEntered="0"/>
    <interval begin="150.00" end="180.00" id="o2" nVehContrib="1" flow="120.00" occupancy="89.74" speed="0.19" length="5.00" nVehEntered="1"/>
    <interval begin="150.00" end="180.00" id="o3" nVehContrib="0" flow="0.00" occupancy="0.00" speed="-1.00" length="-1.00" nVehEntered="0"/>
    <interval begin="180.00" end="210.00" id="i0" nVehContrib="1" flow="120.00" occupancy="1.02" speed="16.31" length="5.00" nVehEntered="1"/>
    <interval begin="180.00" end="210.00" id="i1" nVehContrib="0" flow="0.00" occupancy="0.00" speed="-1.00" length="-1.00" nVehEntered="0"/>
    <interval begin="180.00" end="210.00" id="i2" nVehContrib="4" flow="480.00" occupancy="4.03" speed="16.54" length="5.00" nVehEntered="4"/>
    <interval begin="180.00" end="210.00" id="i3" nVehContrib="0" flow="0.00" occupancy="0.00" speed="-1.00" length="-1.00" nVehEntered="0"/>
    <interval begin="180.00" end="210.00" id="o0" nVehContrib="1" flow="120.00" occupancy="90.89" speed="0.46" length="5.00" nVehEntered="1"/>
    <interval begin="180.00" end="210.00" id="o1" nVehContrib="0" flow="0.00" occupancy="0.00" speed="-1.00" length="-1.00" nVehEntered="0"/>
    <interval begin="180.00" end="210.00" id="o2" nVehContrib="1" flow="120.00" occupancy="90.69" speed="0.28" length="5.00" nVehEntered="1"/>
    <interval begin="180.00" end="210.00" id="o3" nVehContrib="0" flow="0.00" occupancy="0.00" speed="-1.00" length="-1.00" nVehEntered="0"/>
    <interval begin="210.00" end="240.00" id="i0" nVehContrib="2" flow="240.00" occupancy="2.01" speed="16.55" length="5.00" nVehEntered="2"/>
    <interval begin="210.00" end="240.00" id="i1" nVehContrib="0" flow="0.00" occupancy="0.00" speed="-1.00" length="-1.00" nVehEntered="0"/>
    <interval begin="210.00" end="240.00" id="i2" nVehContrib="0" flow="0.00" occupancy="0.00" speed="-1.00" length="-1.00" nVehEntered="0"/>
    <interval begin="210.00" end="240.00" id="i3" nVehContrib="0" flow="0.00" occupancy="0.00" speed="-1.00" length="-1.00" nVehEntered="0"/>
    <interval begin="210.00" end="240.00" id="o0" nVehContrib="1" flow="120.00" occupancy="89.37" speed="0.17" length="5.00" nVehEntered="1"/>
    <interval begin="210.00" end="240.00" id="o1" nVehContrib="0" flow="0.00" occupancy="0.00" speed="-1.00" length="-1.00" nVehEntered="0"/>
    <interval begin="210.00" end="240.00" id="o2" nVehContrib="1" flow="120.00" occupancy="88.32" speed="0.17" length="5.00" nVehEntered="1"/>
    <interval begin="210.00" end="240.00" id="o3" nVehContrib="0" flow="0.00" occupancy="0.00" speed="-1.00" length="-1.00" nVehEntered="0"/>
    <interval begin="240.00" end="270.00" id="i0" nVehContrib="2" flow="240.00" occupancy="2.01" speed="16.56" length="5.00" nVehEntered="2"/>
    <interval begin="240.00" end="270.00" id="i1" nVehContrib="0" flow="0.00" occupancy="0.00" speed="-1.00" length="-1.00" nVehEntered="0"/>
    <interval begin="240.00" end="270.00" id="i2" nVehContrib="2" flow="240.00" occupancy="2.03" speed="16.42" length="5.00" nVehEntered="2"/>
    <interval begin="240.00" end="270.00" id="i3" nVehContrib="0" flow="0.00" occupancy="0.00" speed="-1.00" length="-1.00" nVehEntered="0"/>
    <interval begin="240.00" end="270.00" id="o0" nVehContrib="3" flow="360.00" occupancy="26.41" speed="2.11" length="5.00" nVehEntered="3"/>
    <interval begin="240.00" end="270.00" id="o1" nVehContrib="0" flow="0.00" occupancy="0.00" speed="-1.00" length="-1.00" nVehEntered="0"/>
    <interval begin="240.00" end="270.00" id="o2" nVehContrib="3" flow="360.00" occupancy="69.85" speed="1.01" length="5.00" nVehEntered="3"/>
    <interval begin="240.00" end="270.00" id="o3" nVehContrib="0" flow="0.00" occupancy="0.00" speed="-1.00" length="-1.00" nVehEntered="0"/>
    <interval begin="270.00" end="300.00" id="i0" nVehContrib="0" flow="0.00" occupancy="0.00" speed="-1.00" length="-1.00" nVehEntered="0"/>
    <interval begin="270.00" end="300.00" id="i1" nVehContrib="0" flow="0.00" occupancy="0.00" speed="-1.00" length="-1.00" nVehEntered="0"/>
    <interval begin="270.00" end="300.00" id="i2" nVehContrib="2" flow="240.00" occupancy="2.04" speed="16.33" length="5.00" nVehEntered="2"/>
    <interval begin="270.00" end="300.00" id="i3" nVehContrib="0" flow="0.00" occupancy="0.00" speed="-1.00" length="-1.00" nVehEntered="0"/>
    <interval begin="270.00" end="300.00" id="o0" nVehContrib="1" flow="120.00" occupancy="89.28" speed="0.34" length="5.00" nVehEntered="1"/>
    <interval begin="270.00" end="300.00" id="o1" nVehContrib="0" flow="0.00" occupancy="0.00" speed="-1.00" length="-1.00" nVehEntered="0"/>
    <interval begin="270.00" end="300.00" id="o2" nVehContrib="2" flow="240.00" occupancy="86.66" speed="0.37" length="5.00" nVehEntered="1"/>
    <interval begin="270.00" end="300.00" id="o3" nVehContrib="0" flow="0.00" occupancy="0.00" speed="-1.00" length="-1.00" nVehEntered="0"/>
    <interval begin="300.00" end="330.00" id="i0" nVehContrib="2" flow="240.00" occupancy="2.02" speed="16.51" length="5.00" nVehEntered="2"/>
    <interval begin="300.00" end="330.00" id="i1" nVehContrib="0" flow="0.00" occupancy="0.00" speed="-1.00" length="-1.00" nVehEntered="0"/>
    <interval begin="300.00" end="330.00" id="i2" nVehContrib="0" flow="0.00" occupancy="0.00" speed="-1.00" length="-1.00" nVehEntered="0"/>
    <interval begin="300.00" end="330.00" id="i3" nVehContrib="0" flow="0.00" occupancy="0.00" speed="-1.00" length="-1.00" nVehEntered="0"/>
    <interval begin="300.00" end="330.00" id="o0" nVehContrib="2" flow="240.00" occupancy="85.59" speed="0.31" length="5.00" nVehEntered="1"/>
    <interval begin="300.00" end="330.00" id="o1" nVehContrib="0" flow="0.00" occupancy="0.00" speed="-1.00" length="-1.00" nVehEntered="0"/>
    <interval begin="300.00" end="330.00" id="o2" nVehContrib="1" flow="120.00" occupancy="37.26" speed="0.45" length="5.00" nVehEntered="1"/>
    <interval begin="300.00" end="330.00" id="o3" nVehContrib="0" flow="0.00" occupancy="0.00" speed="-1.00" length="-1.00" nVehEntered="0"/>
    <interval begin="330.00" end="360.00" id="i0" nVehContrib="3" flow="360.00" occupancy="3.05" speed="16.41" length="5.00" nVehEntered="3"/>
    <interval begin="330.00" end="360.00" id="i1" nVehContrib="0" flow="0.00" occupancy="0.00" speed="-1.00" length="-1.00" nVehEntered="0"/>
    <interval begin="330.00" end="360.00" id="i2" nVehContrib="2" flow="240.00" occupancy="2.03" speed="16.41" length="5.00" nVehEntered="2"/>
    <interval begin="330.00" end="360.00" id="i3" nVehContrib="0" flow="0.00" occupancy="0.00" speed="-1.00" length="-1.00" nVehEntered="0"/>
    <interval begin="330.00" end="360.00" id="o0" nVehContrib="0" flow="0.00" occupancy="94.57" speed="-1.00" length="-1.00" nVehEntered="1"/>
    <interval begin="330.00" end="360.00" id="o1" nVehContrib="0" flow="0.00" occupancy="0.00" speed="-1.00" length="-1.00" nVehEntered="0"/>
    <interval begin="330.00" end="360.00" id="o2" nVehContrib="0" flow="0.00" occupancy="92.99" speed="-1.00" length="-1.00" nVehEntered="1"/>
    <interval begin="330.00" end="360.00" id="o3" nVehContrib="0" flow="0.00" occupancy="0.00" speed="-1.00" length="-1.00" nVehEntered="0"/>
    <interval begin="360.00" end="390.00" id="i0" nVehContrib="1" flow="120.00" occupancy="1.02" speed="16.29" length="5.00" nVehEntered="1"/>
    <interval begin="360.00" end="390.00" id="i1" nVehContrib="0" flow="0.00" occupancy="0.00" speed="-1.00" length="-1.00" nVehEntered="0"/>
    <interval begin="360.00" end="390.00" id="i2" nVehContrib="0" flow="0.00" occupancy="0.00" speed="-1.00" length="-1.00" nVehEntered="0"/>
    <interval begin="360.00" end="390.00" id="i3" nVehContrib="0" flow="0.00" occupancy="0.00" speed="-1.00" length="-1.00" nVehEntered="0"/>
    <interval begin="360.00" end="390.00" id="o0" nVehContrib="2" flow="240.00" occupancy="77.76" speed="0.27" length="5.00" nVehEntered="2"/>
    <interval begin="360.00" end="390.00" id="o1" nVehContrib="0" flow="0.00" occupancy="0.00" speed="-1.00" length="-1.00" nVehEntered="0"/>
    <interval begin="360.00" end="390.00" id="o2" nVehContrib="2" flow="240.00" occupancy="77.47" speed="0.27" length="5.00" nVehEntered="2"/>
    <interval begin="360.00" end="390.00" id="o3" nVehContrib="0" flow="0.00" occupancy="0.00" speed="-1.00" length="-1.00" nVehEntered="0"/>
    <interval begin="390.00" end="420.00" id="i0" nVehContrib="2" flow="240.00" occupancy="2.01" speed="16.57" length="5.00" nVehEntered="2"/>
    <interval begin="390.00" end="420.00" id="i1" nVehContrib="0" flow="0.00" occupancy="0.00" speed="-1.00" length="-1.00" nVehEntered="0"/>
    <interval begin="390.00" end="420.00" id="i2" nVehContrib="3" flow="360.00" occupancy="3.03" speed="16.48" length="5.00" nVehEntered="3"/>
    <interval begin="390.00" end="420.00" id="i3" nVehContrib="0" flow="0.00" occupancy="0.00" speed="-1.00" length="-1.00" nVehEntered="0"/>
    <interval begin="390.00" end="420.00" id="o0" nVehContrib="1" flow="120.00" occupancy="89.28" speed="0.36" length="5.00" nVehEntered="1"/>
    <interval begin="390.00" end="420.00" id="o1" nVehContrib="0" flow="0.00" occupancy="0.00" speed="-1.00" length="-1.00" nVehEntered="0"/>
    <interval begin="390.00" end="420.00" id="o2" nVehContrib="1" flow="120.00" occupancy="90.38" speed="0.36" length="5.00" nVehEntered="1"/>
    <interval begin="390.00" end="420.00" id="o3" nVehContrib="0" flow="0.00" occupancy="0.00" speed="-1.00" length="-1.00" nVehEntered="0"/>
    <interval begin="420.00" end="450.00" id="i0" nVehContrib="3" flow="360.00" occupancy="3.04" speed="16.45" length="5.00" nVehEntered="3"/>
    <interval begin="420.00" end="450.00" id="i1" nVehContrib="0" flow="0.00" occupancy="0.00" speed="-1.00" length="-1.00" nVehEntered="0"/>
    <interval begin="420.00" end="450.00" id="i2" nVehContrib="1" flow="120.00" occupancy="1.02" speed="16.33" length="5.00" nVehEntered="1"/>
    <interval begin="420.00" end="450.00" id="i3" nVehContrib="0" flow="0.00" occupancy="0.00" speed="-1.00" length="-1.00" nVehEntered="0"/>
    <interval begin="420.00" end="450.00" id="o0" nVehContrib="1" flow="120.00" occupancy="88.75" speed="0.29" length="5.00" nVehEntered="1"/>
    <interval begin="420.00" end="450.00" id="o1" nVehContrib="0" flow="0.00" occupancy="0.00" speed="-1.00" length="-1.00" nVehEntered="0"/>
    <interval begin="420.00" end="450.00" id="o2" nVehContrib="1" flow="120.00" occupancy="88.49" speed="0.29" length="5.00" nVehEntered="1"/>
    <interval begin="420.00" end="450.00" id="o3" nVehContrib="0" flow="0.00" occupancy="0.00" speed="-1.00" length="-1.00" nVehEntered="0"/>
    <interval begin="450.00" end="480.00" id="i0" nVehContrib="1" flow="120.00" occupancy="1.00" speed="16.64" length="5.00" nVehEntered="1"/>
    <interval begin="450.00" end="480.00" id="i1" nVehContrib="0" flow="0.00" occupancy="0.00" speed="-1.00" length="-1.00" nVehEntered="0"/>
    <interval begin="450.00" end="480.00" id="i2" nVehContrib="0" flow="0.00" occupancy="0.00" speed="-1.00" length="-1.00" nVehEntered="0"/>
    <interval begin="450.00" end="480.00" id="i3" nVehContrib="0" flow="0.00" occupancy="0.00" speed="-1.00" length="-1.00" nVehEntered="0"/>
    <interval begin="450.00" end="480.00" id="o0" nVehContrib="2" flow="240.00" occupancy="77.59" speed="0.31" length="5.00" nVehEntered="2"/>
    <interval begin="450.00" end="480.00" id="o1" nVehContrib="0" flow="0.00" occupancy="0.00" speed="-1.00" length="-1.00" nVehEntered="0"/>
    <interval begin="450.00" end="480.00" id="o2" nVehContrib="2" flow="240.00" occupancy="79.32" speed="0.30" length="5.00" nVehEntered="2"/>
    <interval begin="450.00" end="480.00" id="o3" nVehContrib="0" flow="0.00" occupancy="0.00" speed="-1.00" length="-1.00" nVehEntered="0"/>
    <interval begin="480.00" end="510.00" id="i0" nVehContrib="3" flow="360.00" occupancy="3.03" speed="16.50" length="5.00" nVehEntered="3"/>
    <interval begin="480.00" end="510.00" id="i1" nVehContrib="0" flow="0.00" occupancy="0.00" speed="-1.00" length="-1.00" nVehEntered="0"/>
    <interval begin="480.00" end="510.00" id="i2" nVehContrib="1" flow="120.00" occupancy="1.00" speed="16.59" length="5.00" nVehEntered="1"/>
    <interval begin="480.00" end="510.00" id="i3" nVehContrib="0" flow="0.00" occupancy="0.00" speed="-1.00" length="-1.00" nVehEntered="0"/>
    <interval begin="480.00" end="510.00" id="o0" nVehContrib="1" flow="120.00" occupancy="88.39" speed="0.17" length="5.00" nVehEntered="1"/>
    <interval begin="480.00" end="510.00" id="o1" nVehContrib="0" flow="0.00" occupancy="0.00" speed="-1.00" length="-1.00" nVehEntered="0"/>
    <interval begin="480.00" end="510.00" id="o2" nVehContrib="1" flow="120.00" occupancy="88.95" speed="0.17" length="5.00" nVehEntered="1"/>
    <interval begin="480.00" end="510.00" id="o3" nVehContrib="0" flow="0.00" occupancy="0.00" speed="-1.00" length="-1.00" nVehEntered="0"/>
    <interval begin="510.00" end="540.00" id="i0" nVehContrib="1" flow="120.00" occupancy="1.02" speed="16.29" length="5.00" nVehEntered="1"/>
    <interval begin="510.00" end="540.00" id="i1" nVehContrib="0" flow="0.00" occupancy="0.00" speed="-1.00" length="-1.00" nVehEntered="0"/>
    <interval begin="510.00" end="540.00" id="i2" nVehContrib="0" flow="0.00" occupancy="0.00" speed="-1.00" length="-1.00" nVehEntered="0"/>
    <interval begin="510.00" end="540.00" id="i3" nVehContrib="0" flow="0.00" occupancy="0.00" speed="-1.00" length="-1.00" nVehEntered="0"/>
    <interval begin="510.00" end="540.00" id="o0" nVehContrib="2" flow="240.00" occupancy="84.23" speed="0.34" length="5.00" nVehEntered="1"/>
    <interval begin="510.00" end="540.00" id="o1" nVehContrib="0" flow="0.00" occupancy="0.00" speed="-1.00" length="-1.00" nVehEntered="0"/>
    <interval begin="510.00" end="540.00" id="o2" nVehContrib="2" flow="240.00" occupancy="84.51" speed="0.34" length="5.00" nVehEntered="1"/>
    <interval begin="510.00" end="540.00" id="o3" nVehContrib="0" flow="0.00" occupancy="0.00" speed="-1.00" length="-1.00" nVehEntered="0"/>
    <interval begin="540.00" end="570.00" id="i0" nVehContrib="1" flow="120.00" occupancy="1.00" speed="16.63" length="5.00" nVehEntered="1"/>
    <interval begin="540.00" end="570.00" id="i1" nVehContrib="0" flow="0.00" occupancy="0.00" speed="-1.00" length="-1.00" nVehEntered="0"/>
    <interval begin="540.00" end="570.00" id="i2" nVehContrib="3" flow="360.00" occupancy="3.04" speed="16.47" length="5.00" nVehEntered="3"/>
    <interval begin="540.00" end="570.00" id="i3" nVehContrib="0" flow="0.00" occupancy="0.00" speed="-1.00" length="-1.00" nVehEntered="0"/>
    <interval begin="540.00" end="570.00" id="o0" nVehContrib="2" flow="240.00" occupancy="80.45" speed="1.45" length="5.00" nVehEntered="3"/>
    <interval begin="540.00" end="570.00" id="o1" nVehContrib="0" flow="0.00" occupancy="0.00" speed="-1.00" length="-1.00" nVehEntered="0"/>
    <interval begin="540.00" end="570.00" id="o2" nVehContrib="2" flow="240.00" occupancy="79.88" speed="1.40" length="5.00" nVehEntered="3"/>
    <interval begin="540.00" end="570.00" id="o3" nVehContrib="0" flow="0.00" occupancy="0.00" speed="-1.00" length="-1.00" nVehEntered="0"/>
    <interval begin="570.00" end="600.00" id="i0" nVehContrib="0" flow="0.00" occupancy="0.00" speed="-1.00" length="-1.00" nVehEntered="0"/>
    <interval begin="570.00" end="600.00" id="i1" nVehContrib="0" flow="0.00" occupancy="0.00" speed="-1.00" length="-1.00" nVehEntered="0"/>
    <interval begin="570.00" end="600.00" id="i2" nVehContrib="3" flow="360.00" occupancy="3.03" speed="16.50" length="5.00" nVehEntered="3"/>
    <interval begin="570.00" end="600.00" id="i3" nVehContrib="0" flow="0.00" occupancy="0.00" speed="-1.00" length="-1.00" nVehEntered="0"/>
    <interval begin="570.00" end="600.00" id="o0" nVehContrib="2" flow="240.00" occupancy="85.42" speed="1.32" length="5.00" nVehEntered="1"/>
    <interval begin="570.00" end="600.00" id="o1" nVehContrib="0" flow="0.00" occupancy="0.00" speed="-1.00" length="-1.00" nVehEntered="0"/>
    <interval begin="570.00" end="600.00" id="o2" nVehContrib="1" flow="120.00" occupancy="40.75" speed="0.34" length="5.00" nVehEntered="1"/>
    <interval begin="570.00" end="600.00" id="o3" nVehContrib="0" flow="0.00" occupancy="0.00" speed="-1.00" length="-1.00" nVehEntered="0"/>
    <interval begin="600.00" end="630.00" id="i0" nVehContrib="1" flow="120.00" occupancy="1.00" speed="16.64" length="5.00" nVehEntered="1"/>
    <interval begin="600.00" end="630.00" id="i1" nVehContrib="0" flow="0.00" occupancy="0.00" speed="-1.00" length="-1.00" nVehEntered="0"/>
    <interval begin="600.00" end="630.00" id="i2" nVehContrib="2" flow="240.00" occupancy="2.05" speed="16.30" length="5.00" nVehEntered="2"/>
    <interval begin="600.00" end="630.00" id="i3" nVehContrib="0" flow="0.00" occupancy="0.00" speed="-1.00" length="-1.00" nVehEntered="0"/>
    <interval begin="600.00" end="630.00" id="o0" nVehContrib="0" flow="0.00" occupancy="31.45" speed="-1.00" length="-1.00" nVehEntered="1"/>
    <interval begin="600.00" end="630.00" id="o1" nVehContrib="0" flow="0.00" occupancy="0.00" speed="-1.00" length="-1.00" nVehEntered="0"/>
    <interval begin="600.00" end="630.00" id="o2" nVehContrib="1" flow="120.00" occupancy="89.54" speed="0.24" length="5.00" nVehEntered="1"/>
    <interval begin="600.00" end="630.00" id="o3" nVehContrib="0" flow="0.00" occupancy="0.00" speed="-1.00" length="-1.00" nVehEntered="0"/>
    <interval begin="630.00" end="660.00" id="i0" nVehContrib="0" flow="0.00" occupancy="0.00" speed="-1.00" length="-1.00" nVehEntered="0"/>
    <interval begin="630.00" end="660.00" id="i1" nVehContrib="0" flow="0.00" occupancy="0.00" speed="-1.00" length="-1.00" nVehEntered="0"/>
    <interval begin="630.00" end="660.00" id="i2" nVehContrib="4" flow="480.00" occupancy="4.05" speed="16.47" length="5.00" nVehEntered="4"/>
    <interval begin="630.00" end="660.00" id="i3" nVehContrib="0" flow="0.00" occupancy="0.00" speed="-1.00" length="-1.00" nVehEntered="0"/>
    <interval begin="630.00" end="660.00" id="o0" nVehContrib="1" flow="120.00" occupancy="88.24" speed="0.15" length="5.00" nVehEntered="1"/>
    <interval begin="630.00" end="660.00" id="o1" nVehContrib="0" flow="0.00" occupancy="0.00" speed="-1.00" length="-1.00" nVehEntered="0"/>
    <interval begin="630.00" end="660.00" id="o2" nVehContrib="1" flow="120.00" occupancy="24.69" speed="0.38" length="5.00" nVehEntered="1"/>
    <interval begin="630.00" end="660.00" id="o3" nVehContrib="0" flow="0.00" occupancy="0.00" speed="-1.00" length="-1.00" nVehEntered="0"/>
    <interval begin="660.00" end="690.00" id="i0" nVehContrib="2" flow="240.00" occupancy="2.03" speed="16.44" length="5.00" nVehEntered="2"/>
    <interval begin="660.00" end="690.00" id="i1" nVehContrib="0" flow="0.00" occupancy="0.00" speed="-1.00" length="-1.00" nVehEntered="0"/>
    <interval begin="660.00" end="690.00" id="i2" nVehContrib="4" flow="480.00" occupancy="4.04" speed="16.51" length="5.00" nVehEntered="4"/>
    <interval begin="660.00" end="690.00" id="i3" nVehContrib="0" flow="0.00" occupancy="0.00" speed="-1.00" length="-1.00" nVehEntered="0"/>
    <interval begin="660.00" end="690.00" id="o0" nVehContrib="1" flow="120.00" occupancy="94.67" speed="0.16" length="5.00" nVehEntered="0"/>
    <interval begin="660.00" end="690.00" id="o1" nVehContrib="0" flow="0.00" occupancy="0.00" speed="-1.00" length="-1.00" nVehEntered="0"/>
    <interval begin="660.00" end="690.00" id="o2" nVehContrib="1" flow="120.00" occupancy="94.92" speed="0.16" length="5.00" nVehEntered="0"/>
    <interval begin="660.00" end="690.00" id="o3" nVehContrib="0" flow="0.00" occupancy="0.00" speed="-1.00" length="-1.00" nVehEntered="0"/>
    <interval begin="690.00" end="720.00" id="i0" nVehContrib="1" flow="120.00" occupancy="1.00" speed="16.63" length="5.00" nVehEntered="1"/>
    <interval begin="690.00" end="720.00" id="i1" nVehContrib="0" flow="0.00" occupancy="0.00" speed="-1.00" length="-1.00" nVehEntered="0"/>
    <interval begin="690.00" end="720.00" id="i2" nVehContrib="2" flow="240.00" occupancy="2.03" speed="16.40" length="5.00" nVehEntered="2"/>
    <interval begin="690.00" end="720.00" id="i3" nVehContrib="0" flow="0.00" occupancy="0.00" speed="-1.00" length="-1.00" nVehEntered="0"/>
    <interval begin="690.00" end="720.00" id="o0" nVehContrib="1" flow="120.00" occupancy="90.47" speed="0.18" length="5.00" nVehEntered="1"/>
    <interval begin="690.00" end="720.00" id="o1" nVehContrib="0" flow="0.00" occupancy="0.00" speed="-1.00" length="-1.00" nVehEntered="0"/>
    <interval begin="690.00" end="720.00" id="o2" nVehContrib="1" flow="120.00" occupancy="90.39" speed="0.18" length="5.00" nVehEntered="1"/>
    <interval begin="690.00" end="720.00" id="o3" nVehContrib="0" flow="0.00" occupancy="0.00" speed="-1.00" length="-1.00" nVehEntered="0"/>
    <interval begin="720.00" end="750.00" id="i0" nVehContrib="2" flow="240.00" occupancy="2.03" speed="16.46" length="5.00" nVehEntered="2"/>
    <interval begin="720.00" end="750.00" id="i1" nVehContrib="0" flow="0.00" occupancy="0.00" speed="-1.00" length="-1.00" nVehEntered="0"/>
    <interval begin="720.00" end="750.00" id="i2" nVehContrib="5" flow="600.00" occupancy="5.10" speed="16.33" length="5.00" nVehEntered="5"/>
    <interval begin="720.00" end="750.00" id="i3" nVehContrib="0" flow="0.00" occupancy="0.00" speed="-1.00" length="-1.00" nVehEntered="0"/>
    <interval begin="720.00" end="750.00" id="o0" nVehContrib="1" flow="120.00" occupancy="79.51" speed="0.31" length="5.00" nVehEntered="2"/>
    <interval begin="720.00" end="750.00" id="o1" nVehContrib="0" flow="0.00" occupancy="0.00" speed="-1.00" length="-1.00" nVehEntered="0"/>
    <interval begin="720.00" end="750.00" id="o2" nVehContrib="1" flow="120.00" occupancy="80.60" speed="0.31" length="5.00" nVehEntered="2"/>
    <interval begin="720.00" end="750.00" id="o3" nVehContrib="0" flow="0.00" occupancy="0.00" speed="-1.00" length="-1.00" nVehEntered="0"/>
    <interval begin="750.00" end="780.00" id="i0" nVehContrib="3" flow="360.00" occupancy="3.03" speed="16.50" length="5.00" nVehEntered="3"/>
    <interval begin="750.00" end="780.00" id="i1" nVehContrib="0" flow="0.00" occupancy="0.00" speed="-1.00" length="-1.00" nVehEntered="0"/>
    <interval begin="750.00" end="780.00" id="i2" nVehContrib="1" flow="120.00" occupancy="1.02" speed="16.38" length="5.00" nVehEntered="1"/>