<?xml version="1.0" encoding="UTF-8"?>

<!-- generated on Thu Sep  7 13:05:26 2017 by SUMO Version 0.30.0
<?xml version="1.0" encoding="UTF-8"?>

<configuration xmlns:xsi="http://www.w3.org/2001/XMLSchema-instance" xsi:noNamespaceSchemaLocation="http://sumo.dlr.de/xsd/sumoConfiguration.xsd">

    <input>
        <net-file value="data/cross.net.xml"/>
        <route-files value="data/cross.rou.xml"/>
        <additional-files value="data/cross1.det.xml"/>
    </input>

    <output>
        <tripinfo-output value="tripinfo.xml"/>
    </output>

    <time>
        <begin value="0"/>
    </time>

    <report>
        <verbose value="true"/>
        <no-step-log value="true"/>
    </report>

    <traci_server>
        <remote-port value="52258"/>
    </traci_server>

    <gui_only>
        <gui-settings-file value="data/gui.settings.xml"/>
    </gui_only>

</configuration>
-->

<detector xmlns:xsi="http://www.w3.org/2001/XMLSchema-instance" xsi:noNamespaceSchemaLocation="http://sumo.dlr.de/xsd/det_e1_file.xsd">
    <interval begin="0.00" end="30.00" id="i0" nVehContrib="0" flow="0.00" occupancy="0.00" speed="-1.00" length="-1.00" nVehEntered="0"/>
    <interval begin="0.00" end="30.00" id="i1" nVehContrib="0" flow="0.00" occupancy="0.00" speed="-1.00" length="-1.00" nVehEntered="0"/>
    <interval begin="0.00" end="30.00" id="i2" nVehContrib="0" flow="0.00" occupancy="0.00" speed="-1.00" length="-1.00" nVehEntered="0"/>
    <interval begin="0.00" end="30.00" id="i3" nVehContrib="0" flow="0.00" occupancy="0.00" speed="-1.00" length="-1.00" nVehEntered="0"/>
    <interval begin="0.00" end="30.00" id="o0" nVehContrib="0" flow="0.00" occupancy="0.00" speed="-1.00" length="-1.00" nVehEntered="0"/>
    <interval begin="0.00" end="30.00" id="o1" nVehContrib="0" flow="0.00" occupancy="0.00" speed="-1.00" length="-1.00" nVehEntered="0"/>
    <interval begin="0.00" end="30.00" id="o2" nVehContrib="0" flow="0.00" occupancy="0.00" speed="-1.00" length="-1.00" nVehEntered="0"/>
    <interval begin="0.00" end="30.00" id="o3" nVehContrib="0" flow="0.00" occupancy="0.00" speed="-1.00" length="-1.00" nVehEntered="0"/>
    <interval begin="30.00" end="60.00" id="i0" nVehContrib="2" flow="240.00" occupancy="2.57" speed="16.41" length="5.00" nVehEntered="3"/>
    <interval begin="30.00" end="60.00" id="i1" nVehContrib="3" flow="360.00" occupancy="3.63" speed="19.27" length="7.00" nVehEntered="3"/>
    <interval begin="30.00" end="60.00" id="i2" nVehContrib="2" flow="240.00" occupancy="2.03" speed="16.38" length="5.00" nVehEntered="2"/>
    <interval begin="30.00" end="60.00" id="i3" nVehContrib="3" flow="360.00" occupancy="3.66" speed="19.11" length="7.00" nVehEntered="3"/>
    <interval begin="30.00" end="60.00" id="o0" nVehContrib="0" flow="0.00" occupancy="28.75" speed="-1.00" length="-1.00" nVehEntered="1"/>
    <interval begin="30.00" end="60.00" id="o1" nVehContrib="3" flow="360.00" occupancy="4.68" speed="14.97" length="7.00" nVehEntered="3"/>
    <interval begin="30.00" end="60.00" id="o2" nVehContrib="0" flow="0.00" occupancy="40.61" speed="-1.00" length="-1.00" nVehEntered="1"/>
    <interval begin="30.00" end="60.00" id="o3" nVehContrib="2" flow="240.00" occupancy="3.11" speed="14.98" length="7.00" nVehEntered="2"/>
    <interval begin="60.00" end="90.00" id="i0" nVehContrib="5" flow="600.00" occupancy="4.53" speed="16.43" length="5.00" nVehEntered="4"/>
    <interval begin="60.00" end="90.00" id="i1" nVehContrib="5" flow="600.00" occupancy="6.16" speed="18.94" length="7.00" nVehEntered="5"/>
    <interval begin="60.00" end="90.00" id="i2" nVehContrib="1" flow="120.00" occupancy="1.02" speed="16.38" length="5.00" nVehEntered="1"/>
    <interval begin="60.00" end="90.00" id="i3" nVehContrib="1" flow="120.00" occupancy="1.23" speed="18.91" length="7.00" nVehEntered="1"/>
    <interval begin="60.00" end="90.00" id="o0" nVehContrib="0" flow="0.00" occupancy="100.00" speed="-1.00" length="-1.00" nVehEntered="0"/>
    <interval begin="60.00" end="90.00" id="o1" nVehContrib="3" flow="360.00" occupancy="4.94" speed="14.19" length="7.00" nVehEntered="3"/>
    <interval begin="60.00" end="90.00" id="o2" nVehContrib="0" flow="0.00" occupancy="100.00" speed="-1.00" length="-1.00" nVehEntered="0"/>
    <interval begin="60.00" end="90.00" id="o3" nVehContrib="1" flow="120.00" occupancy="1.65" speed="14.13" length="7.00" nVehEntered="1"/>
    <interval begin="90.00" end="120.00" id="i0" nVehContrib="5" flow="600.00" occupancy="5.06" speed="16.46" length="5.00" nVehEntered="5"/>
    <interval begin="90.00" end="120.00" id="i1" nVehContrib="4" flow="480.00" occupancy="4.88" speed="19.13" length="7.00" nVehEntered="4"/>
    <interval begin="90.00" end="120.00" id="i2" nVehContrib="4" flow="480.00" occupancy="4.04" speed="16.51" length="5.00" nVehEntered="4"/>
    <interval begin="90.00" end="120.00" id="i3" nVehContrib="1" flow="120.00" occupancy="1.21" speed="19.28" length="7.00" nVehEntered="1"/>
    <interval begin="90.00" end="120.00" id="o0" nVehContrib="0" flow="0.00" occupancy="100.00" speed="-1.00" length="-1.00" nVehEntered="0"/>
    <interval begin="90.00" end="120.00" id="o1" nVehContrib="4" flow="480.00" occupancy="6.70" speed="13.95" length="7.00" nVehEntered="4"/>
    <interval begin="90.00" end="120.00" id="o2" nVehContrib="0" flow="0.00" occupancy="100.00" speed="-1.00" length="-1.00" nVehEntered="0"/>
    <interval begin="90.00" end="120.00" id="o3" nVehContrib="1" flow="120.00" occupancy="1.53" speed="15.25" length="7.00" nVehEntered="1"/>
    <interval begin="120.00" end="150.00" id="i0" nVehContrib="3" flow="360.00" occupancy="3.06" speed="16.35" length="5.00" nVehEntered="3"/>
    <interval begin="120.00" end="150.00" id="i1" nVehContrib="0" flow="0.00" occupancy="0.00" speed="-1.00" length="-1.00" nVehEntered="0"/>
    <interval begin="120.00" end="150.00" id="i2" nVehContrib="4" flow="480.00" occupancy="4.06" speed="16.42" length="5.00" nVehEntered="4"/>
    <interval begin="120.00" end="150.00" id="i3" nVehContrib="2" flow="240.00" occupancy="2.43" speed="19.17" length="7.00" nVehEntered="2"/>
    <interval begin="120.00" end="150.00" id="o0" nVehContrib="0" flow="0.00" occupancy="100.00" speed="-1.00" length="-1.00" nVehEntered="0"/>
    <interval begin="120.00" end="150.00" id="o1" nVehContrib="2" flow="240.00" occupancy="3.44" speed="13.63" length="7.00" nVehEntered="2"/>
    <interval begin="120.00" end="150.00" id="o2" nVehContrib="0" flow="0.00" occupancy="100.00" speed="-1.00" length="-1.00" nVehEntered="0"/>
    <interval begin="120.00" end="150.00" id="o3" nVehContrib="2" flow="240.00" occupancy="3.19" speed="14.65" length="7.00" nVehEntered="2"/>
    <interval begin="150.00" end="180.00" id="i0" nVehContrib="3" flow="360.00" occupancy="3.04" speed="16.46" length="5.00" nVehEntered="3"/>
    <interval begin="150.00" end="180.00" id="i1" nVehContrib="2" flow="240.00" occupancy="2.78" speed="19.09" length="7.00" nVehEntered="3"/>
    <interval begin="150.00" end="180.00" id="i2" nVehContrib="5" flow="600.00" occupancy="5.07" speed="16.45" length="5.00" nVehEntered="5"/>
    <interval begin="150.00" end="180.00" id="i3" nVehContrib="3" flow="360.00" occupancy="4.04" speed="19.00" length="7.00" nVehEntered="4"/>
    <interval begin="150.00" end="180.00" id="o0" nVehContrib="0" flow="0.00" occupancy="100.00" speed="-1.00" length="-1.00" nVehEntered="0"/>
    <interval begin="150.00" end="180.00" id="o1" nVehContrib="2" flow="240.00" occupancy="3.29" speed="14.22" length="7.00" nVehEntered="2"/>
    <interval begin="150.00" end="180.00" id="o2" nVehContrib="0" flow="0.00" occupancy="100.00" speed="-1.00" length="-1.00" nVehEntered="0"/>
    <interval begin="150.00" end="180.00" id="o3" nVehContrib="3" flow="360.00" occupancy="4.69" speed="14.94" length="7.00" nVehEntered="3"/>
    <interval begin="180.00" end="210.00" id="i0" nVehContrib="2" flow="240.00" occupancy="2.01" speed="16.56" length="5.00" nVehEntered="2"/>
    <interval begin="180.00" end="210.00" id="i1" nVehContrib="6" flow="720.00" occupancy="7.01" speed="19.05" length="7.00" nVehEntered="5"/>
    <interval begin="180.00" end="210.00" id="i2" nVehContrib="2" flow="240.00" occupancy="2.03" speed="16.43" length="5.00" nVehEntered="2"/>
    <interval begin="180.00" end="210.00" id="i3" nVehContrib="3" flow="360.00" occupancy="3.32" speed="19.05" length="7.00" nVehEntered="2"/>
    <interval begin="180.00" end="210.00" id="o0" nVehContrib="0" flow="0.00" occupancy="100.00" speed="-1.00" length="-1.00" nVehEntered="0"/>
    <interval begin="180.00" end="210.00" id="o1" nVehContrib="4" flow="480.00" occupancy="6.47" speed="14.46" length="7.00" nVehEntered="4"/>
    <interval begin="180.00" end="210.00" id="o2" nVehContrib="0" flow="0.00" occupancy="100.00" speed="-1.00" length="-1.00" nVehEntered="0"/>
    <interval begin="180.00" end="210.00" id="o3" nVehContrib="3" flow="360.00" occupancy="4.93" speed="14.22" length="7.00" nVehEntered="3"/>
    <interval begin="210.00" end="240.00" id="i0" nVehContrib="6" flow="720.00" occupancy="9.46" speed="12.58" length="5.00" nVehEntered="6"/>
    <interval begin="210.00" end="240.00" id="i1" nVehContrib="4" flow="480.00" occupancy="4.92" speed="18.98" length="7.00" nVehEntered="4"/>
    <interval begin="210.00" end="240.00" id="i2" nVehContrib="5" flow="600.00" occupancy="5.20" speed="16.07" length="5.00" nVehEntered="5"/>
    <interval begin="210.00" end="240.00" id="i3" nVehContrib="2" flow="240.00" occupancy="2.43" speed="19.19" length="7.00" nVehEntered="2"/>
    <interval begin="210.00" end="240.00" id="o0" nVehContrib="0" flow="0.00" occupancy="100.00" speed="-1.00" length="-1.00" nVehEntered="0"/>
    <interval begin="210.00" end="240.00" id="o1" nVehContrib="5" flow="600.00" occupancy="8.26" speed="14.16" length="7.00" nVehEntered="5"/>
    <interval begin="210.00" end="240.00" id="o2" nVehContrib="0" flow="0.00" occupancy="100.00" speed="-1.00" length="-1.00" nVehEntered="0"/>
    <interval begin="210.00" end="240.00" id="o3" nVehContrib="3" flow="360.00" occupancy="4.68" speed="14.96" length="7.00" nVehEntered="3"/>
    <interval begin="240.00" end="270.00" id="i0" nVehContrib="0" flow="0.00" occupancy="0.00" speed="-1.00" length="-1.00" nVehEntered="0"/>
    <interval begin="240.00" end="270.00" id="i1" nVehContrib="4" flow="480.00" occupancy="4.95" speed="18.86" length="7.00" nVehEntered="4"/>
    <interval begin="240.00" end="270.00" id="i2" nVehContrib="3" flow="360.00" occupancy="6.06" speed="9.58" length="5.00" nVehEntered="3"/>
    <interval begin="240.00" end="270.00" id="i3" nVehContrib="2" flow="240.00" occupancy="2.53" speed="19.10" length="7.00" nVehEntered="3"/>
    <interval begin="240.00" end="270.00" id="o0" nVehContrib="0" flow="0.00" occupancy="100.00" speed="-1.00" length="-1.00" nVehEntered="0"/>
    <interval begin="240.00" end="270.00" id="o1" nVehContrib="5" flow="600.00" occupancy="8.26" speed="14.15" length="7.00" nVehEntered="5"/>
    <interval begin="240.00" end="270.00" id="o2" nVehContrib="0" flow="0.00" occupancy="100.00" speed="-1.00" length="-1.00" nVehEntered="0"/>
    <interval begin="240.00" end="270.00" id="o3" nVehContrib="1" flow="120.00" occupancy="1.54" speed="15.18" length="7.00" nVehEntered="1"/>
    <interval begin="270.00" end="300.00" id="i0" nVehContrib="0" flow="0.00" occupancy="0.00" speed="-1.00" length="-1.00" nVehEntered="0"/>
    <interval begin="270.00" end="300.00" id="i1" nVehContrib="4" flow="480.00" occupancy="4.96" speed="18.84" length="7.00" nVehEntered="4"/>
    <interval begin="270.00" end="300.00" id="i2" nVehContrib="0" flow="0.00" occupancy="0.00" speed="-1.00" length="-1.00" nVehEntered="0"/>
    <interval begin="270.00" end="300.00" id="i3" nVehContrib="4" flow="480.00" occupancy="4.81" speed="19.04" length="7.00" nVehEntered="3"/>
    <interval begin="270.00" end="300.00" id="o0" nVehContrib="0" flow="0.00" occupancy="100.00" speed="-1.00" length="-1.00" nVehEntered="0"/>
    <interval begin="270.00" end="300.00" id="o1" nVehContrib="2" flow="240.00" occupancy="3.13" speed="14.92" length="7.00" nVehEntered="2"/>
    <interval begin="270.00" end="300.00" id="o2" nVehContrib="0" flow="0.00" occupancy="100.00" speed="-1.00" length="-1.00" nVehEntered="0"/>
    <interval begin="270.00" end="300.00" id="o3" nVehContrib="3" flow="360.00" occupancy="4.95" speed="14.16" length="7.00" nVehEntered="3"/>
    <interval begin="300.00" end="330.00" id="i0" nVehContrib="0" flow="0.00" occupancy="0.00" speed="-1.00" length="-1.00" nVehEntered="0"/>
    <interval begin="300.00" end="330.00" id="i1" nVehContrib="5" flow="600.00" occupancy="6.12" speed="19.07" length="7.00" nVehEntered="5"/>
    <interval begin="300.00" end="330.00" id="i2" nVehContrib="0" flow="0.00" occupancy="0.00" speed="-1.00" length="-1.00" nVehEntered="0"/>
    <interval begin="300.00" end="330.00" id="i3" nVehContrib="3" flow="360.00" occupancy="3.70" speed="18.95" length="7.00" nVehEntered="3"/>
    <interval begin="300.00" end="330.00" id="o0" nVehContrib="0" flow="0.00" occupancy="100.00" speed="-1.00" length="-1.00" nVehEntered="0"/>
    <interval begin="300.00" end="330.00" id="o1" nVehContrib="5" flow="600.00" occupancy="8.34" speed="14.03" length="7.00" nVehEntered="5"/>
    <interval begin="300.00" end="330.00" id="o2" nVehContrib="0" flow="0.00" occupancy="100.00" speed="-1.00" length="-1.00" nVehEntered="0"/>
    <interval begin="300.00" end="330.00" id="o3" nVehContrib="3" flow="360.00" occupancy="4.99" speed="14.04" length="7.00" nVehEntered="3"/>
    <interval begin="330.00" end="360.00" id="i0" nVehContrib="0" flow="0.00" occupancy="0.00" speed="-1.00" length="-1.00" nVehEntered="0"/>
    <interval begin="330.00" end="360.00" id="i1" nVehContrib="4" flow="480.00" occupancy="4.89" speed="19.08" length="7.00" nVehEntered="4"/>
    <interval begin="330.00" end="360.00" id="i2" nVehContrib="0" flow="0.00" occupancy="0.00" speed="-1.00" length="-1.00" nVehEntered="0"/>
    <interval begin="330.00" end="360.00" id="i3" nVehContrib="5" flow="600.00" occupancy="6.18" speed="18.90" length="7.00" nVehEntered="5"/>
    <interval begin="330.00" end="360.00" id="o0" nVehContrib="0" flow="0.00" occupancy="6.85" speed="-1.00" length="-1.00" nVehEntered="1"/>
    <interval begin="330.00" end="360.00" id="o1" nVehContrib="6" flow="720.00" occupancy="9.91" speed="14.15" length="7.00" nVehEntered="6"/>
    <interval begin="330.00" end="360.00" id="o2" nVehContrib="0" flow="0.00" occupancy="21.41" speed="-1.00" length="-1.00" nVehEntered="1"/>
    <interval begin="330.00" end="360.00" id="o3" nVehContrib="5" flow="600.00" occupancy="7.91" speed="14.78" length="7.00" nVehEntered="5"/>
    <interval begin="360.00" end="390.00" id="i0" nVehContrib="0" flow="0.00" occupancy="12.83" speed="-1.00" length="-1.00" nVehEntered="1"/>
    <interval begin="360.00" end="390.00" id="i1" nVehContrib="3" flow="360.00" occupancy="3.69" speed="18.99" length="7.00" nVehEntered="3"/>
    <interval begin="360.00" end="390.00" id="i2" nVehContrib="1" flow="120.00" occupancy="22.40" speed="0.74" length="5.00" nVehEntered="1"/>
    <interval begin="360.00" end="390.00" id="i3" nVehContrib="4" flow="480.00" occupancy="4.85" speed="19.25" length="7.00" nVehEntered="4"/>
    <interval begin="360.00" end="390.00" id="o0" nVehContrib="0" flow="0.00" occupancy="100.00" speed="-1.00" length="-1.00" nVehEntered="0"/>
    <interval begin="360.00" end="390.00" id="o1" nVehContrib="1" flow="120.00" occupancy="1.76" speed="13.28" length="7.00" nVehEntered="1"/>
    <interval begin="360.00" end="390.00" id="o2" nVehContrib="0" flow="0.00" occupancy="100.00" speed="-1.00" length="-1.00" nVehEntered="0"/>
    <interval begin="360.00" end="390.00" id="o3" nVehContrib="4" flow="480.00" occupancy="6.49" speed="14.40" length="7.00" nVehEntered="4"/>
    <interval begin="390.00" end="420.00" id="i0" nVehContrib="1" flow="120.00" occupancy="3.25" speed="1.04" length="5.00" nVehEntered="0"/>
    <interval begin="390.00" end="420.00" id="i1" nVehContrib="3" flow="360.00" occupancy="3.64" speed="19.21" length="7.00" nVehEntered="3"/>
    <interval begin="390.00" end="420.00" id="i2" nVehContrib="0" flow="0.00" occupancy="0.00" speed="-1.00" length="-1.00" nVehEntered="0"/>
    <interval begin="390.00" end="420.00" id="i3" nVehContrib="5" flow="600.00" occupancy="6.11" speed="19.09" length="7.00" nVehEntered="5"/>
    <interval begin="390.00" end="420.00" id="o0" nVehContrib="0" flow="0.00" occupancy="100.00" speed="-1.00" length="-1.00" nVehEntered="0"/>
    <interval begin="390.00" end="420.00" id="o1" nVehContrib="3" flow="360.00" occupancy="6.18" speed="13.74" length="7.00" nVehEntered="4"/>
    <interval begin="390.00" end="420.00" id="o2" nVehContrib="0" flow="0.00" occupancy="100.00" speed="-1.00" length="-1.00" nVehEntered="0"/>
    <interval begin="390.00" end="420.00" id="o3" nVehContrib="5" flow="600.00" occupancy="8.06" speed="14.49" length="7.00" nVehEntered="5"/>
    <interval begin="420.00" end="450.00" id="i0" nVehContrib="0" flow="0.00" occupancy="0.00" speed="-1.00" length="-1.00" nVehEntered="0"/>
    <interval begin="420.00" end="450.00" id="i1" nVehContrib="3" flow="360.00" occupancy="3.70" speed="18.94" length="7.00" nVehEntered="3"/>
    <interval begin="420.00" end="450.00" id="i2" nVehContrib="0" flow="0.00" occupancy="0.00" speed="-1.00" length="-1.00" nVehEntered="0"/>
    <interval begin="420.00" end="450.00" id="i3" nVehContrib="4" flow="480.00" occupancy="4.93" speed="18.95" length="7.00" nVehEntered="4"/>
    <interval begin="420.00" end="450.00" id="o0" nVehContrib="0" flow="0.00" occupancy="100.00" speed="-1.00" length="-1.00" nVehEntered="0"/>
    <interval begin="420.00" end="450.00" id="o1" nVehContrib="4" flow="480.00" occupancy="6.65" speed="14.19" length="7.00" nVehEntered="4"/>
    <interval begin="420.00" end="450.00" id="o2" nVehContrib="0" flow="0.00" occupancy="100.00" speed="-1.00" length="-1.00" nVehEntered="0"/>
    <interval begin="420.00" end="450.00" id="o3" nVehContrib="5" flow="600.00" occupancy="8.30" speed="14.11" length="7.00" nVehEntered="5"/>
    <interval begin="450.00" end="480.00" id="i0" nVehContrib="0" flow="0.00" occupancy="0.00" speed="-1.00" length="-1.00" nVehEntered="0"/>
    <interval begin="450.00" end="480.00" id="i1" nVehContrib="2" flow="240.00" occupancy="2.46" speed="19.00" length="7.00" nVehEntered="2"/>
    <interval begin="450.00" end="480.00" id="i2" nVehContrib="0" flow="0.00" occupancy="0.00" speed="-1.00" length="-1.00" nVehEntered="0"/>
    <interval begin="450.00" end="480.00" id="i3" nVehContrib="5" flow="600.00" occupancy="6.20" speed="18.81" length="7.00" nVehEntered="5"/>
    <interval begin="450.00" end="480.00" id="o0" nVehContrib="0" flow="0.00" occupancy="100.00" speed="-1.00" length="-1.00" nVehEntered="0"/>
    <interval begin="450.00" end="480.00" id="o1" nVehContrib="2" flow="240.00" occupancy="2.31" speed="13.59" length="7.00" nVehEntered="1"/>
    <interval begin="450.00" end="480.00" id="o2" nVehContrib="0" flow="0.00" occupancy="100.00" speed="-1.00" length="-1.00" nVehEntered="0"/>
    <interval begin="450.00" end="480.00" id="o3" nVehContrib="4" flow="480.00" occupancy="6.86" speed="13.64" length="7.00" nVehEntered="4"/>
    <interval begin="480.00" end="510.00" id="i0" nVehContrib="0" flow="0.00" occupancy="0.00" speed="-1.00" length="-1.00" nVehEntered="0"/>
    <interval begin="480.00" end="510.00" id="i1" nVehContrib="4" flow="480.00" occupancy="4.88" speed="19.13" length="7.00" nVehEntered="4"/>
    <interval begin="480.00" end="510.00" id="i2" nVehContrib="0" flow="0.00" occupancy="0.00" speed="-1.00" length="-1.00" nVehEntered="0"/>
    <interval begin="480.00" end="510.00" id="i3" nVehContrib="4" flow="480.00" occupancy="4.89" speed="19.09" length="7.00" nVehEntered="4"/>
    <interval begin="480.00" end="510.00" id="o0" nVehContrib="0" flow="0.00" occupancy="100.00" speed="-1.00" length="-1.00" nVehEntered="0"/>
    <interval begin="480.00" end="510.00" id="o1" nVehContrib="3" flow="360.00" occupancy="5.18" speed="13.59" length="7.00" nVehEntered="4"/>
    <interval begin="480.00" end="510.00" id="o2" nVehContrib="0" flow="0.00" occupancy="100.00" speed="-1.00" length="-1.00" nVehEntered="0"/>
    <interval begin="480.00" end="510.00" id="o3" nVehContrib="5" flow="600.00" occupancy="8.34" speed="14.03" length="7.00" nVehEntered="5"/>
    <interval begin="510.00" end="540.00" id="i0" nVehContrib="0" flow="0.00" occupancy="0.00" speed="-1.00" length="-1.00" nVehEntered="0"/>
    <interval begin="510.00" end="540.00" id="i1" nVehContrib="5" flow="600.00" occupancy="6.14" speed="19.01" length="7.00" nVehEntered="5"/>
    <interval begin="510.00" end="540.00" id="i2" nVehContrib="0" flow="0.00" occupancy="0.00" speed="-1.00" length="-1.00" nVehEntered="0"/>
    <interval begin="510.00" end="540.00" id="i3" nVehContrib="4" flow="480.00" occupancy="4.89" speed="19.09" length="7.00" nVehEntered="4"/>
    <interval begin="510.00" end="540.00" id="o0" nVehContrib="0" flow="0.00" occupancy="100.00" speed="-1.00" length="-1.00" nVehEntered="0"/>
    <interval begin="510.00" end="540.00" id="o1" nVehContrib="5" flow="600.00" occupancy="7.96" speed="14.65" length="7.00" nVehEntered="4"/>
    <interval begin="510.00" end="540.00" id="o2" nVehContrib="0" flow="0.00" occupancy="100.00" speed="-1.00" length="-1.00" nVehEntered="0"/>
    <interval begin="510.00" end="540.00" id="o3" nVehContrib="3" flow="360.00" occupancy="4.99" speed="14.65" length="7.00" nVehEntered="4"/>
    <interval begin="540.00" end="570.00" id="i0" nVehContrib="0" flow="0.00" occupancy="0.00" speed="-1.00" length="-1.00" nVehEntered="0"/>
    <interval begin="540.00" end="570.00" id="i1" nVehContrib="4" flow="480.00" occupancy="4.85" speed="19.23" length="7.00" nVehEntered="4"/>
    <interval begin="540.00" end="570.00" id="i2" nVehContrib="0" flow="0.00" occupancy="0.00" speed="-1.00" length="-1.00" nVehEntered="0"/>
    <interval begin="540.00" end="570.00" id="i3" nVehContrib="0" flow="0.00" occupancy="0.00" speed="-1.00" length="-1.00" nVehEntered="0"/>
    <interval begin="540.00" end="570.00" id="o0" nVehContrib="0" flow="0.00" occupancy="100.00" speed="-1.00" length="-1.00" nVehEntered="0"/>
    <interval begin="540.00" end="570.00" id="o1" nVehContrib="5" flow="600.00" occupancy="8.17" speed="14.34" length="7.00" nVehEntered="5"/>
    <interval begin="540.00" end="570.00" id="o2" nVehContrib="0" flow="0.00" occupancy="100.00" speed="-1.00" length="-1.00" nVehEntered="0"/>
    <interval begin="540.00" end="570.00" id="o3" nVehContrib="2" flow="240.00" occupancy="3.05" speed="14.36" length="7.00" nVehEntered="1"/>
    <interval begin="570.00" end="600.00" id="i0" nVehContrib="0" flow="0.00" occupancy="0.00" speed="-1.00" length="-1.00" nVehEntered="0"/>
    <interval begin="570.00" end="600.00" id="i1" nVehContrib="3" flow="360.00" occupancy="3.64" speed="19.25" length="7.00" nVehEntered="3"/>
    <interval begin="570.00" end="600.00" id="i2" nVehContrib="0" flow="0.00" occupancy="0.00" speed="-1.00" length="-1.00" nVehEntered="0"/>
    <interval begin="570.00" end="600.00" id="i3" nVehContrib="2" flow="240.00" occupancy="2.43" speed="19.23" length="7.00" nVehEntered="2"/>
    <interval begin="570.00" end="600.00" id="o0" nVehContrib="0" flow="0.00" occupancy="100.00" speed="-1.00" length="-1.00" nVehEntered="0"/>
    <interval begin="570.00" end="600.00" id="o1" nVehContrib="4" flow="480.00" occupancy="6.23" speed="14.98" length="7.00" nVehEntered="4"/>
    <interval begin="570.00" end="600.00" id="o2" nVehContrib="0" flow="0.00" occupancy="100.00" speed="-1.00" length="-1.00" nVehEntered="0"/>
    <interval begin="570.00" end="600.00" id="o3" nVehContrib="0" flow="0.00" occupancy="0.00" speed="-1.00" length="-1.00" nVehEntered="0"/>
    <interval begin="600.00" end="630.00" id="i0" nVehContrib="0" flow="0.00" occupancy="0.00" speed="-1.00" length="-1.00" nVehEntered="0"/>
    <interval begin="600.00" end="630.00" id="i1" nVehContrib="2" flow="240.00" occupancy="2.45" speed="19.09" length="7.00" nVehEntered="2"/>
    <interval begin="600.00" end="630.00" id="i2" nVehContrib="0" flow="0.00" occupancy="0.00" speed="-1.00" length="-1.00" nVehEntered="0"/>
    <interval begin="600.00" end="630.00" id="i3" nVehContrib="1" flow="120.00" occupancy="1.21" speed="19.32" length="7.00" nVehEntered="1"/>
    <interval begin="600.00" end="630.00" id="o0" nVehContrib="0" flow="0.00" occupancy="100.00" speed="-1.00" length="-1.00" nVehEntered="0"/>
    <interval begin="600.00" end="630.00" id="o1" nVehContrib="2" flow="240.00" occupancy="3.44" speed="13.59" length="7.00" nVehEntered="2"/>
    <interval begin="600.00" end="630.00" id="o2" nVehContrib="0" flow="0.00" occupancy="100.00" speed="-1.00" length="-1.00" nVehEntered="0"/>
    <interval begin="600.00" end="630.00" id="o3" nVehContrib="3" flow="360.00" occupancy="5.13" speed="13.68" length="7.00" nVehEntered="3"/>
    <interval begin="630.00" end="660.00" id="i0" nVehContrib="0" flow="0.00" occupancy="0.00" speed="-1.00" length="-1.00" nVehEntered="0"/>
    <interval begin="630.00" end="660.00" id="i1" nVehContrib="2" flow="240.00" occupancy="2.46" speed="18.96" length="7.00" nVehEntered="2"/>
    <interval begin="630.00" end="660.00" id="i2" nVehContrib="0" flow="0.00" occupancy="0.00" speed="-1.00" length="-1.00" nVehEntered="0"/>
    <interval begin="630.00" end="660.00" id="i3" nVehContrib="1" flow="120.00" occupancy="1.28" speed="18.18" length="7.00" nVehEntered="1"/>
    <interval begin="630.00" end="660.00" id="o0" nVehContrib="0" flow="0.00" occupancy="100.00" speed="-1.00" length="-1.00" nVehEntered="0"/>
    <interval begin="630.00" end="660.00" id="o1" nVehContrib="1" flow="120.00" occupancy="1.69" speed="13.82" length="7.00" nVehEntered="1"/>
    <interval begin="630.00" end="660.00" id="o2" nVehContrib="0" flow="0.00" occupancy="0.98" speed="-1.00" length="-1.00" nVehEntered="1"/>
    <interval begin="630.00" end="660.00" id="o3" nVehContrib="0" flow="0.00" occupancy="0.00" speed="-1.00" length="-1.00" nVehEntered="0"/>
    <interval begin="660.00" end="690.00" id="i0" nVehContrib="0" flow="0.00" occupancy="0.00" speed="-1.00" length="-1.00" nVehEntered="0"/>
    <interval begin="660.00" end="690.00" id="i1" nVehContrib="4" flow="480.00" occupancy="4.89" speed="19.10" length="7.00" nVehEntered="4"/>
    <interval begin="660.00" end="690.00" id="i2" nVehContrib="0" flow="0.00" occupancy="6.06" speed="-1.00" length="-1.00" nVehEntered="1"/>
    <interval begin="660.00" end="690.00" id="i3" nVehContrib="2" flow="240.00" occupancy="2.42" speed="19.30" length="7.00" nVehEntered="2"/>
    <interval begin="660.00" end="690.00" id="o0" nVehContrib="0" flow="0.00" occupancy="84.10" speed="-1.00" length="-1.00" nVehEntered="1"/>
    <interval begin="660.00" end="690.00" id="o1" nVehContrib="3" flow="360.00" occupancy="4.86" speed="14.73" length="7.00" nVehEntered="4"/>
    <interval begin="660.00" end="690.00" id="o2" nVehContrib="0" flow="0.00" occupancy="100.00" speed="-1.00" length="-1.00" nVehEntered="0"/>
    <interval begin="660.00" end="690.00" id="o3" nVehContrib="2" flow="240.00" occupancy="3.44" speed="13.58" length="7.00" nVehEntered="2"/>
    <interval begin="690.00" end="720.00" id="i0" nVehContrib="1" flow="120.00" occupancy="19.51" speed="0.85" length="5.00" nVehEntered="1"/>
    <interval begin="690.00" end="720.00" id="i1" nVehContrib="2" flow="240.00" occupancy="2.44" speed="19.13" length="7.00" nVehEntered="2"/>
    <interval begin="690.00" end="720.00" id="i2" nVehContrib="1" flow="120.00" occupancy="8.22" speed="1.17" length="5.00" nVehEntered="0"/>
    <interval begin="690.00" end="720.00" id="i3" nVehContrib="3" flow="360.00" occupancy="3.67" speed="19.08" length="7.00" nVehEntered="3"/>
    <interval begin="690.00" end="720.00" id="o0" nVehContrib="0" flow="0.00" occupancy="100.00" speed="-1.00" length="-1.00" nVehEntered="0"/>
    <interval begin="690.00" end="720.00" id="o1" nVehContrib="3" flow="360.00" occupancy="4.65" speed="14.74" length="7.00" nVehEntered="2"/>
    <interval begin="690.00" end="720.00" id="o2" nVehContrib="0" flow="0.00" occupancy="100.00" speed="-1.00" length="-1.00" nVehEntered="0"/>
    <interval begin="690.00" end="720.00" id="o3" nVehContrib="2" flow="240.00" occupancy="4.53" speed="13.84" length="7.00" nVehEntered="3"/>
    <interval begin="720.00" end="750.00" id="i0" nVehContrib="0" flow="0.00" occupancy="0.00" speed="-1.00" length="-1.00" nVehEntered="0"/>
    <interval begin="720.00" end="750.00" id="i1" nVehContrib="4" flow="480.00" occupancy="4.92" speed="18.97" length="7.00" nVehEntered="4"/>
    <interval begin="720.00" end="750.00" id="i2" nVehContrib="0" flow="0.00" occupancy="0.00" speed="-1.00" length="-1.00" nVehEntered="0"/>
    <interval begin="720.00" end="750.00" id="i3" nVehContrib="5" flow="600.00" occupancy="6.16" speed="18.96" length="7.00" nVehEntered="5"/>
    <interval begin="720.00" end="750.00" id="o0" nVehContrib="0" flow="0.00" occupancy="100.00" speed="-1.00" length="-1.00" nVehEntered="0"/>
    <interval begin="720.00" end="750.00" id="o1" nVehContrib="4" flow="480.00" occupancy="6.92" speed="13.50" length="7.00" nVehEntered="4"/>
    <interval begin="720.00" end="750.00" id="o2" nVehContrib="0" flow="0.00" occupancy="100.00" speed="-1.00" length="-1.00" nVehEntered="0"/>
    <interval begin="720.00" end="750.00" id="o3" nVehContrib="6" flow="720.00" occupancy="8.98" speed="13.84" length="7.00" nVehEntered="5"/>
    <interval begin="750.00" end="780.00" id="i0" nVehContrib="0" flow="0.00" occupancy="0.00" speed="-1.00" length="-1.00" nVehEntered="0"/>
    <interval begin="750.00" end="780.00" id="i1" nVehContrib="3" flow="360.00" occupancy="3.73" speed="18.75" length="7.00" nVehEntered="3"/>
    <interval begin="750.00" end="780.00" id="i2" nVehContrib="0" flow="0.00" occupancy="0.00" speed="-1.00" length="-1.00" nVehEntered="0"/>