<?xml version="1.0" encoding="UTF-8"?>

<!-- generated on Thu Sep  7 12:45:55 2017 by SUMO gui Version 0.30.0
<?xml version="1.0" encoding="UTF-8"?>

<configuration xmlns:xsi="http://www.w3.org/2001/XMLSchema-instance" xsi:noNamespaceSchemaLocation="http://sumo.dlr.de/xsd/sumoConfiguration.xsd">

    <input>
        <net-file value="data/cross.net.xml"/>
        <route-files value="data/cross.rou.xml"/>
        <additional-files value="data/cross1.det.xml"/>
    </input>

    <output>
        <tripinfo-output value="tripinfo.xml"/>
    </output>

    <time>
        <begin value="0"/>
    </time>

    <report>
        <verbose value="true"/>
        <no-step-log value="true"/>
    </report>

    <traci_server>
        <remote-port value="51987"/>
    </traci_server>

    <gui_only>
        <gui-settings-file value="data/gui.settings.xml"/>
    </gui_only>

</configuration>
-->

<detector xmlns:xsi="http://www.w3.org/2001/XMLSchema-instance" xsi:noNamespaceSchemaLocation="http://sumo.dlr.de/xsd/det_e1_file.xsd">
    <interval begin="0.00" end="30.00" id="i0" nVehContrib="0" flow="0.00" occupancy="0.00" speed="-1.00" length="-1.00" nVehEntered="0"/>
    <interval begin="0.00" end="30.00" id="i1" nVehContrib="0" flow="0.00" occupancy="0.00" speed="-1.00" length="-1.00" nVehEntered="0"/>
    <interval begin="0.00" end="30.00" id="i2" nVehContrib="0" flow="0.00" occupancy="0.00" speed="-1.00" length="-1.00" nVehEntered="0"/>
    <interval begin="0.00" end="30.00" id="i3" nVehContrib="0" flow="0.00" occupancy="0.00" speed="-1.00" length="-1.00" nVehEntered="0"/>
    <interval begin="0.00" end="30.00" id="o0" nVehContrib="0" flow="0.00" occupancy="0.00" speed="-1.00" length="-1.00" nVehEntered="0"/>
    <interval begin="0.00" end="30.00" id="o1" nVehContrib="0" flow="0.00" occupancy="0.00" speed="-1.00" length="-1.00" nVehEntered="0"/>
    <interval begin="0.00" end="30.00" id="o2" nVehContrib="0" flow="0.00" occupancy="0.00" speed="-1.00" length="-1.00" nVehEntered="0"/>
    <interval begin="0.00" end="30.00" id="o3" nVehContrib="0" flow="0.00" occupancy="0.00" speed="-1.00" length="-1.00" nVehEntered="0"/>
    <interval begin="30.00" end="60.00" id="i0" nVehContrib="2" flow="240.00" occupancy="2.03" speed="16.43" length="5.00" nVehEntered="2"/>
    <interval begin="30.00" end="60.00" id="i1" nVehContrib="1" flow="120.00" occupancy="1.21" speed="19.34" length="7.00" nVehEntered="1"/>
    <interval begin="30.00" end="60.00" id="i2" nVehContrib="4" flow="480.00" occupancy="4.04" speed="16.51" length="5.00" nVehEntered="4"/>
    <interval begin="30.00" end="60.00" id="i3" nVehContrib="2" flow="240.00" occupancy="2.43" speed="19.18" length="7.00" nVehEntered="2"/>
    <interval begin="30.00" end="60.00" id="o0" nVehContrib="1" flow="120.00" occupancy="1.37" speed="12.14" length="5.00" nVehEntered="1"/>
    <interval begin="30.00" end="60.00" id="o1" nVehContrib="1" flow="120.00" occupancy="5.39" speed="4.33" length="7.00" nVehEntered="1"/>
    <interval begin="30.00" end="60.00" id="o2" nVehContrib="1" flow="120.00" occupancy="31.27" speed="13.96" length="5.00" nVehEntered="2"/>
    <interval begin="30.00" end="60.00" id="o3" nVehContrib="1" flow="120.00" occupancy="45.13" speed="0.57" length="7.00" nVehEntered="2"/>
    <interval begin="60.00" end="90.00" id="i0" nVehContrib="2" flow="240.00" occupancy="2.03" speed="16.40" length="5.00" nVehEntered="2"/>
    <interval begin="60.00" end="90.00" id="i1" nVehContrib="3" flow="360.00" occupancy="3.70" speed="18.90" length="7.00" nVehEntered="3"/>
    <interval begin="60.00" end="90.00" id="i2" nVehContrib="0" flow="0.00" occupancy="0.00" speed="-1.00" length="-1.00" nVehEntered="0"/>
    <interval begin="60.00" end="90.00" id="i3" nVehContrib="3" flow="360.00" occupancy="3.71" speed="18.85" length="7.00" nVehEntered="3"/>
    <interval begin="60.00" end="90.00" id="o0" nVehContrib="0" flow="0.00" occupancy="71.51" speed="-1.00" length="-1.00" nVehEntered="1"/>
    <interval begin="60.00" end="90.00" id="o1" nVehContrib="0" flow="0.00" occupancy="45.02" speed="-1.00" length="-1.00" nVehEntered="1"/>
    <interval begin="60.00" end="90.00" id="o2" nVehContrib="1" flow="120.00" occupancy="88.06" speed="0.20" length="5.00" nVehEntered="1"/>
    <interval begin="60.00" end="90.00" id="o3" nVehContrib="1" flow="120.00" occupancy="90.89" speed="0.26" length="7.00" nVehEntered="1"/>
    <interval begin="90.00" end="120.00" id="i0" nVehContrib="5" flow="600.00" occupancy="5.03" speed="16.56" length="5.00" nVehEntered="5"/>
    <interval begin="90.00" end="120.00" id="i1" nVehContrib="4" flow="480.00" occupancy="4.85" speed="19.23" length="7.00" nVehEntered="4"/>
    <interval begin="90.00" end="120.00" id="i2" nVehContrib="0" flow="0.00" occupancy="0.00" speed="-1.00" length="-1.00" nVehEntered="0"/>
    <interval begin="90.00" end="120.00" id="i3" nVehContrib="4" flow="480.00" occupancy="4.89" speed="19.10" length="7.00" nVehEntered="4"/>
    <interval begin="90.00" end="120.00" id="o0" nVehContrib="2" flow="240.00" occupancy="78.89" speed="0.30" length="5.00" nVehEntered="2"/>
    <interval begin="90.00" end="120.00" id="o1" nVehContrib="1" flow="120.00" occupancy="91.24" speed="0.29" length="7.00" nVehEntered="1"/>
    <interval begin="90.00" end="120.00" id="o2" nVehContrib="2" flow="240.00" occupancy="46.60" speed="0.41" length="5.00" nVehEntered="1"/>
    <interval begin="90.00" end="120.00" id="o3" nVehContrib="1" flow="120.00" occupancy="91.53" speed="0.56" length="7.00" nVehEntered="1"/>
    <interval begin="120.00" end="150.00" id="i0" nVehContrib="2" flow="240.00" occupancy="2.13" speed="16.37" length="5.00" nVehEntered="3"/>
    <interval begin="120.00" end="150.00" id="i1" nVehContrib="2" flow="240.00" occupancy="2.41" speed="19.34" length="7.00" nVehEntered="2"/>
    <interval begin="120.00" end="150.00" id="i2" nVehContrib="2" flow="240.00" occupancy="2.03" speed="16.41" length="5.00" nVehEntered="2"/>
    <interval begin="120.00" end="150.00" id="i3" nVehContrib="3" flow="360.00" occupancy="3.67" speed="19.10" length="7.00" nVehEntered="3"/>
    <interval begin="120.00" end="150.00" id="o0" nVehContrib="1" flow="120.00" occupancy="89.74" speed="0.37" length="5.00" nVehEntered="1"/>
    <interval begin="120.00" end="150.00" id="o1" nVehContrib="1" flow="120.00" occupancy="90.33" speed="0.23" length="7.00" nVehEntered="1"/>
    <interval begin="120.00" end="150.00" id="o2" nVehContrib="0" flow="0.00" occupancy="0.00" speed="-1.00" length="-1.00" nVehEntered="0"/>
    <interval begin="120.00" end="150.00" id="o3" nVehContrib="1" flow="120.00" occupancy="91.03" speed="0.16" length="7.00" nVehEntered="1"/>
    <interval begin="150.00" end="180.00" id="i0" nVehContrib="4" flow="480.00" occupancy="3.95" speed="16.49" length="5.00" nVehEntered="3"/>
    <interval begin="150.00" end="180.00" id="i1" nVehContrib="4" flow="480.00" occupancy="4.89" speed="19.09" length="7.00" nVehEntered="4"/>
    <interval begin="150.00" end="180.00" id="i2" nVehContrib="2" flow="240.00" occupancy="2.02" speed="16.53" length="5.00" nVehEntered="2"/>
    <interval begin="150.00" end="180.00" id="i3" nVehContrib="0" flow="0.00" occupancy="0.00" speed="-1.00" length="-1.00" nVehEntered="0"/>
    <interval begin="150.00" end="180.00" id="o0" nVehContrib="1" flow="120.00" occupancy="88.30" speed="0.19" length="5.00" nVehEntered="1"/>
    <interval begin="150.00" end="180.00" id="o1" nVehContrib="1" flow="120.00" occupancy="90.87" speed="0.27" length="7.00" nVehEntered="1"/>
    <interval begin="150.00" end="180.00" id="o2" nVehContrib="1" flow="120.00" occupancy="67.77" speed="3.07" length="5.00" nVehEntered="2"/>
    <interval begin="150.00" end="180.00" id="o3" nVehContrib="1" flow="120.00" occupancy="90.31" speed="0.54" length="7.00" nVehEntered="1"/>
    <interval begin="180.00" end="210.00" id="i0" nVehContrib="4" flow="480.00" occupancy="4.04" speed="16.49" length="5.00" nVehEntered="4"/>
    <interval begin="180.00" end="210.00" id="i1" nVehContrib="2" flow="240.00" occupancy="2.44" speed="19.12" length="7.00" nVehEntered="2"/>
    <interval begin="180.00" end="210.00" id="i2" nVehContrib="6" flow="720.00" occupancy="6.08" speed="16.45" length="5.00" nVehEntered="6"/>
    <interval begin="180.00" end="210.00" id="i3" nVehContrib="1" flow="120.00" occupancy="1.21" speed="19.30" length="7.00" nVehEntered="1"/>
    <interval begin="180.00" end="210.00" id="o0" nVehContrib="2" flow="240.00" occupancy="78.18" speed="0.31" length="5.00" nVehEntered="2"/>
    <interval begin="180.00" end="210.00" id="o1" nVehContrib="1" flow="120.00" occupancy="90.15" speed="0.17" length="7.00" nVehEntered="1"/>
    <interval begin="180.00" end="210.00" id="o2" nVehContrib="2" flow="240.00" occupancy="77.99" speed="0.33" length="5.00" nVehEntered="2"/>
    <interval begin="180.00" end="210.00" id="o3" nVehContrib="1" flow="120.00" occupancy="91.12" speed="0.27" length="7.00" nVehEntered="1"/>
    <interval begin="210.00" end="240.00" id="i0" nVehContrib="2" flow="240.00" occupancy="2.02" speed="16.49" length="5.00" nVehEntered="2"/>
    <interval begin="210.00" end="240.00" id="i1" nVehContrib="3" flow="360.00" occupancy="3.75" speed="18.65" length="7.00" nVehEntered="3"/>
    <interval begin="210.00" end="240.00" id="i2" nVehContrib="4" flow="480.00" occupancy="4.05" speed="16.47" length="5.00" nVehEntered="4"/>
    <interval begin="210.00" end="240.00" id="i3" nVehContrib="3" flow="360.00" occupancy="3.67" speed="19.05" length="7.00" nVehEntered="3"/>
    <interval begin="210.00" end="240.00" id="o0" nVehContrib="1" flow="120.00" occupancy="89.64" speed="0.20" length="5.00" nVehEntered="1"/>
    <interval begin="210.00" end="240.00" id="o1" nVehContrib="1" flow="120.00" occupancy="90.60" speed="0.27" length="7.00" nVehEntered="1"/>
    <interval begin="210.00" end="240.00" id="o2" nVehContrib="1" flow="120.00" occupancy="44.38" speed="0.44" length="5.00" nVehEntered="1"/>
    <interval begin="210.00" end="240.00" id="o3" nVehContrib="2" flow="240.00" occupancy="82.63" speed="0.43" length="7.00" nVehEntered="2"/>
    <interval begin="240.00" end="270.00" id="i0" nVehContrib="2" flow="240.00" occupancy="2.04" speed="16.34" length="5.00" nVehEntered="2"/>
    <interval begin="240.00" end="270.00" id="i1" nVehContrib="1" flow="120.00" occupancy="1.21" speed="19.29" length="7.00" nVehEntered="1"/>
    <interval begin="240.00" end="270.00" id="i2" nVehContrib="3" flow="360.00" occupancy="3.03" speed="16.51" length="5.00" nVehEntered="3"/>
    <interval begin="240.00" end="270.00" id="i3" nVehContrib="1" flow="120.00" occupancy="1.24" speed="18.83" length="7.00" nVehEntered="1"/>
    <interval begin="240.00" end="270.00" id="o0" nVehContrib="1" flow="120.00" occupancy="88.52" speed="0.18" length="5.00" nVehEntered="1"/>
    <interval begin="240.00" end="270.00" id="o1" nVehContrib="1" flow="120.00" occupancy="89.67" speed="0.54" length="7.00" nVehEntered="1"/>
    <interval begin="240.00" end="270.00" id="o2" nVehContrib="1" flow="120.00" occupancy="87.61" speed="0.18" length="5.00" nVehEntered="1"/>
    <interval begin="240.00" end="270.00" id="o3" nVehContrib="1" flow="120.00" occupancy="91.81" speed="0.50" length="7.00" nVehEntered="1"/>
    <interval begin="270.00" end="300.00" id="i0" nVehContrib="3" flow="360.00" occupancy="3.03" speed="16.48" length="5.00" nVehEntered="3"/>
    <interval begin="270.00" end="300.00" id="i1" nVehContrib="5" flow="600.00" occupancy="6.94" speed="17.08" length="7.00" nVehEntered="5"/>
    <interval begin="270.00" end="300.00" id="i2" nVehContrib="6" flow="720.00" occupancy="6.08" speed="16.44" length="5.00" nVehEntered="6"/>
    <interval begin="270.00" end="300.00" id="i3" nVehContrib="0" flow="0.00" occupancy="0.00" speed="-1.00" length="-1.00" nVehEntered="0"/>
    <interval begin="270.00" end="300.00" id="o0" nVehContrib="1" flow="120.00" occupancy="90.08" speed="0.41" length="5.00" nVehEntered="1"/>
    <interval begin="270.00" end="300.00" id="o1" nVehContrib="2" flow="240.00" occupancy="83.00" speed="0.41" length="7.00" nVehEntered="2"/>
    <interval begin="270.00" end="300.00" id="o2" nVehContrib="1" flow="120.00" occupancy="89.22" speed="0.41" length="5.00" nVehEntered="1"/>
    <interval begin="270.00" end="300.00" id="o3" nVehContrib="2" flow="240.00" occupancy="81.07" speed="0.43" length="7.00" nVehEntered="2"/>
    <interval begin="300.00" end="330.00" id="i0" nVehContrib="2" flow="240.00" occupancy="2.04" speed="16.31" length="5.00" nVehEntered="2"/>
    <interval begin="300.00" end="330.00" id="i1" nVehContrib="3" flow="360.00" occupancy="7.77" speed="10.64" length="7.00" nVehEntered="4"/>
    <interval begin="300.00" end="330.00" id="i2" nVehContrib="4" flow="480.00" occupancy="4.03" speed="16.54" length="5.00" nVehEntered="4"/>
    <interval begin="300.00" end="330.00" id="i3" nVehContrib="2" flow="240.00" occupancy="2.42" speed="19.27" length="7.00" nVehEntered="2"/>
    <interval begin="300.00" end="330.00" id="o0" nVehContrib="2" flow="240.00" occupancy="81.14" speed="1.19" length="5.00" nVehEntered="2"/>
    <interval begin="300.00" end="330.00" id="o1" nVehContrib="0" flow="0.00" occupancy="100.00" speed="-1.00" length="-1.00" nVehEntered="0"/>
    <interval begin="300.00" end="330.00" id="o2" nVehContrib="2" flow="240.00" occupancy="82.34" speed="1.28" length="5.00" nVehEntered="2"/>
    <interval begin="300.00" end="330.00" id="o3" nVehContrib="0" flow="0.00" occupancy="100.00" speed="-1.00" length="-1.00" nVehEntered="0"/>
    <interval begin="330.00" end="360.00" id="i0" nVehContrib="2" flow="240.00" occupancy="2.02" speed="16.47" length="5.00" nVehEntered="2"/>
    <interval begin="330.00" end="360.00" id="i1" nVehContrib="0" flow="0.00" occupancy="100.00" speed="-1.00" length="-1.00" nVehEntered="0"/>
    <interval begin="330.00" end="360.00" id="i2" nVehContrib="2" flow="240.00" occupancy="2.04" speed="16.33" length="5.00" nVehEntered="2"/>
    <interval begin="330.00" end="360.00" id="i3" nVehContrib="3" flow="360.00" occupancy="3.68" speed="19.04" length="7.00" nVehEntered="3"/>
    <interval begin="330.00" end="360.00" id="o0" nVehContrib="1" flow="120.00" occupancy="87.63" speed="0.19" length="5.00" nVehEntered="1"/>
    <interval begin="330.00" end="360.00" id="o1" nVehContrib="1" flow="120.00" occupancy="90.26" speed="0.14" length="7.00" nVehEntered="1"/>
    <interval begin="330.00" end="360.00" id="o2" nVehContrib="1" flow="120.00" occupancy="87.61" speed="0.19" length="5.00" nVehEntered="1"/>
    <interval begin="330.00" end="360.00" id="o3" nVehContrib="2" flow="240.00" occupancy="82.01" speed="0.39" length="7.00" nVehEntered="2"/>
    <interval begin="360.00" end="390.00" id="i0" nVehContrib="1" flow="120.00" occupancy="1.00" speed="16.63" length="5.00" nVehEntered="1"/>
    <interval begin="360.00" end="390.00" id="i1" nVehContrib="2" flow="240.00" occupancy="78.80" speed="0.35" length="7.00" nVehEntered="1"/>
    <interval begin="360.00" end="390.00" id="i2" nVehContrib="4" flow="480.00" occupancy="4.56" speed="14.79" length="5.00" nVehEntered="4"/>
    <interval begin="360.00" end="390.00" id="i3" nVehContrib="4" flow="480.00" occupancy="4.93" speed="18.92" length="7.00" nVehEntered="4"/>
    <interval begin="360.00" end="390.00" id="o0" nVehContrib="1" flow="120.00" occupancy="88.52" speed="0.18" length="5.00" nVehEntered="1"/>
    <interval begin="360.00" end="390.00" id="o1" nVehContrib="2" flow="240.00" occupancy="82.34" speed="0.51" length="7.00" nVehEntered="2"/>
    <interval begin="360.00" end="390.00" id="o2" nVehContrib="1" flow="120.00" occupancy="88.57" speed="0.18" length="5.00" nVehEntered="1"/>
    <interval begin="360.00" end="390.00" id="o3" nVehContrib="2" flow="240.00" occupancy="81.73" speed="0.54" length="7.00" nVehEntered="2"/>
    <interval begin="390.00" end="420.00" id="i0" nVehContrib="3" flow="360.00" occupancy="3.04" speed="16.46" length="5.00" nVehEntered="3"/>
    <interval begin="390.00" end="420.00" id="i1" nVehContrib="1" flow="120.00" occupancy="89.25" speed="0.55" length="7.00" nVehEntered="2"/>
    <interval begin="390.00" end="420.00" id="i2" nVehContrib="1" flow="120.00" occupancy="1.41" speed="11.85" length="5.00" nVehEntered="1"/>
    <interval begin="390.00" end="420.00" id="i3" nVehContrib="4" flow="480.00" occupancy="4.89" speed="19.11" length="7.00" nVehEntered="4"/>
    <interval begin="390.00" end="420.00" id="o0" nVehContrib="1" flow="120.00" occupancy="88.15" speed="0.19" length="5.00" nVehEntered="1"/>
    <interval begin="390.00" end="420.00" id="o1" nVehContrib="1" flow="120.00" occupancy="91.30" speed="0.27" length="7.00" nVehEntered="1"/>
    <interval begin="390.00" end="420.00" id="o2" nVehContrib="1" flow="120.00" occupancy="88.50" speed="0.19" length="5.00" nVehEntered="1"/>
    <interval begin="390.00" end="420.00" id="o3" nVehContrib="1" flow="120.00" occupancy="91.23" speed="0.27" length="7.00" nVehEntered="1"/>
    <interval begin="420.00" end="450.00" id="i0" nVehContrib="2" flow="240.00" occupancy="2.02" speed="16.52" length="5.00" nVehEntered="2"/>
    <interval begin="420.00" end="450.00" id="i1" nVehContrib="2" flow="240.00" occupancy="81.28" speed="0.44" length="7.00" nVehEntered="2"/>
    <interval begin="420.00" end="450.00" id="i2" nVehContrib="3" flow="360.00" occupancy="10.66" speed="6.11" length="5.00" nVehEntered="3"/>
    <interval begin="420.00" end="450.00" id="i3" nVehContrib="5" flow="600.00" occupancy="7.69" speed="15.44" length="7.00" nVehEntered="5"/>
    <interval begin="420.00" end="450.00" id="o0" nVehContrib="1" flow="120.00" occupancy="88.73" speed="0.18" length="5.00" nVehEntered="1"/>
    <interval begin="420.00" end="450.00" id="o1" nVehContrib="2" flow="240.00" occupancy="82.80" speed="0.50" length="7.00" nVehEntered="2"/>
    <interval begin="420.00" end="450.00" id="o2" nVehContrib="2" flow="240.00" occupancy="86.18" speed="0.25" length="5.00" nVehEntered="1"/>
    <interval begin="420.00" end="450.00" id="o3" nVehContrib="2" flow="240.00" occupancy="82.28" speed="0.51" length="7.00" nVehEntered="2"/>
    <interval begin="450.00" end="480.00" id="i0" nVehContrib="3" flow="360.00" occupancy="3.19" speed="15.71" length="5.00" nVehEntered="3"/>
    <interval begin="450.00" end="480.00" id="i1" nVehContrib="1" flow="120.00" occupancy="91.62" speed="0.40" length="7.00" nVehEntered="1"/>
    <interval begin="450.00" end="480.00" id="i2" nVehContrib="1" flow="120.00" occupancy="18.98" speed="0.88" length="5.00" nVehEntered="1"/>
    <interval begin="450.00" end="480.00" id="i3" nVehContrib="2" flow="240.00" occupancy="58.74" speed="5.25" length="7.00" nVehEntered="3"/>
    <interval begin="450.00" end="480.00" id="o0" nVehContrib="2" flow="240.00" occupancy="80.97" speed="0.29" length="5.00" nVehEntered="1"/>
    <interval begin="450.00" end="480.00" id="o1" nVehContrib="1" flow="120.00" occupancy="90.26" speed="0.27" length="7.00" nVehEntered="1"/>
    <interval begin="450.00" end="480.00" id="o2" nVehContrib="1" flow="120.00" occupancy="42.02" speed="0.40" length="5.00" nVehEntered="1"/>
    <interval begin="450.00" end="480.00" id="o3" nVehContrib="1" flow="120.00" occupancy="88.85" speed="0.27" length="7.00" nVehEntered="1"/>
    <interval begin="480.00" end="510.00" id="i0" nVehContrib="4" flow="480.00" occupancy="10.74" speed="8.08" length="5.00" nVehEntered="4"/>
    <interval begin="480.00" end="510.00" id="i1" nVehContrib="1" flow="120.00" occupancy="89.36" speed="0.26" length="7.00" nVehEntered="1"/>
    <interval begin="480.00" end="510.00" id="i2" nVehContrib="1" flow="120.00" occupancy="26.18" speed="0.64" length="5.00" nVehEntered="1"/>
    <interval begin="480.00" end="510.00" id="i3" nVehContrib="1" flow="120.00" occupancy="90.85" speed="0.26" length="7.00" nVehEntered="1"/>
    <interval begin="480.00" end="510.00" id="o0" nVehContrib="0" flow="0.00" occupancy="96.52" speed="-1.00" length="-1.00" nVehEntered="1"/>
    <interval begin="480.00" end="510.00" id="o1" nVehContrib="2" flow="240.00" occupancy="82.01" speed="0.52" length="7.00" nVehEntered="2"/>
    <interval begin="480.00" end="510.00" id="o2" nVehContrib="0" flow="0.00" occupancy="96.25" speed="-1.00" length="-1.00" nVehEntered="1"/>
    <interval begin="480.00" end="510.00" id="o3" nVehContrib="2" flow="240.00" occupancy="82.69" speed="0.53" length="7.00" nVehEntered="2"/>
    <interval begin="510.00" end="540.00" id="i0" nVehContrib="1" flow="120.00" occupancy="13.53" speed="1.23" length="5.00" nVehEntered="1"/>
    <interval begin="510.00" end="540.00" id="i1" nVehContrib="2" flow="240.00" occupancy="81.74" speed="0.53" length="7.00" nVehEntered="2"/>
    <interval begin="510.00" end="540.00" id="i2" nVehContrib="1" flow="120.00" occupancy="16.19" speed="1.03" length="5.00" nVehEntered="1"/>
    <interval begin="510.00" end="540.00" id="i3" nVehContrib="2" flow="240.00" occupancy="82.63" speed="0.55" length="7.00" nVehEntered="2"/>
    <interval begin="510.00" end="540.00" id="o0" nVehContrib="1" flow="120.00" occupancy="87.18" speed="0.17" length="5.00" nVehEntered="1"/>
    <interval begin="510.00" end="540.00" id="o1" nVehContrib="1" flow="120.00" occupancy="90.85" speed="0.25" length="7.00" nVehEntered="1"/>
    <interval begin="510.00" end="540.00" id="o2" nVehContrib="1" flow="120.00" occupancy="42.68" speed="0.16" length="5.00" nVehEntered="1"/>
    <interval begin="510.00" end="540.00" id="o3" nVehContrib="1" flow="120.00" occupancy="91.77" speed="0.25" length="7.00" nVehEntered="1"/>
    <interval begin="540.00" end="570.00" id="i0" nVehContrib="1" flow="120.00" occupancy="19.72" speed="0.85" length="5.00" nVehEntered="1"/>
    <interval begin="540.00" end="570.00" id="i1" nVehContrib="1" flow="120.00" occupancy="90.87" speed="0.26" length="7.00" nVehEntered="1"/>
    <interval begin="540.00" end="570.00" id="i2" nVehContrib="1" flow="120.00" occupancy="54.81" speed="0.30" length="5.00" nVehEntered="1"/>
    <interval begin="540.00" end="570.00" id="i3" nVehContrib="1" flow="120.00" occupancy="90.76" speed="0.25" length="7.00" nVehEntered="1"/>
    <interval begin="540.00" end="570.00" id="o0" nVehContrib="2" flow="240.00" occupancy="77.07" speed="0.31" length="5.00" nVehEntered="2"/>
    <interval begin="540.00" end="570.00" id="o1" nVehContrib="1" flow="120.00" occupancy="91.02" speed="0.24" length="7.00" nVehEntered="1"/>
    <interval begin="540.00" end="570.00" id="o2" nVehContrib="1" flow="120.00" occupancy="44.95" speed="0.35" length="5.00" nVehEntered="1"/>
    <interval begin="540.00" end="570.00" id="o3" nVehContrib="0" flow="0.00" occupancy="100.00" speed="-1.00" length="-1.00" nVehEntered="0"/>
    <interval begin="570.00" end="600.00" id="i0" nVehContrib="2" flow="240.00" occupancy="45.27" speed="0.74" length="5.00" nVehEntered="2"/>
    <interval begin="570.00" end="600.00" id="i1" nVehContrib="1" flow="120.00" occupancy="89.04" speed="0.24" length="7.00" nVehEntered="1"/>
    <interval begin="570.00" end="600.00" id="i2" nVehContrib="1" flow="120.00" occupancy="30.20" speed="0.55" length="5.00" nVehEntered="1"/>
    <interval begin="570.00" end="600.00" id="i3" nVehContrib="0" flow="0.00" occupancy="100.00" speed="-1.00" length="-1.00" nVehEntered="0"/>
    <interval begin="570.00" end="600.00" id="o0" nVehContrib="2" flow="240.00" occupancy="81.19" speed="0.40" length="5.00" nVehEntered="2"/>
    <interval begin="570.00" end="600.00" id="o1" nVehContrib="2" flow="240.00" occupancy="83.88" speed="0.54" length="7.00" nVehEntered="1"/>
    <interval begin="570.00" end="600.00" id="o2" nVehContrib="2" flow="240.00" occupancy="79.65" speed="0.39" length="5.00" nVehEntered="2"/>
    <interval begin="570.00" end="600.00" id="o3" nVehContrib="2" flow="240.00" occupancy="82.41" speed="0.33" length="7.00" nVehEntered="2"/>
    <interval begin="600.00" end="630.00" id="i0" nVehContrib="2" flow="240.00" occupancy="36.06" speed="0.94" length="5.00" nVehEntered="2"/>
    <interval begin="600.00" end="630.00" id="i1" nVehContrib="2" flow="240.00" occupancy="81.16" speed="0.55" length="7.00" nVehEntered="2"/>
    <interval begin="600.00" end="630.00" id="i2" nVehContrib="2" flow="240.00" occupancy="35.26" speed="0.95" length="5.00" nVehEntered="2"/>
    <interval begin="600.00" end="630.00" id="i3" nVehContrib="2" flow="240.00" occupancy="80.98" speed="0.34" length="7.00" nVehEntered="2"/>
    <interval begin="600.00" end="630.00" id="o0" nVehContrib="2" flow="240.00" occupancy="78.79" speed="0.37" length="5.00" nVehEntered="2"/>
    <interval begin="600.00" end="630.00" id="o1" nVehContrib="0" flow="0.00" occupancy="98.21" speed="-1.00" length="-1.00" nVehEntered="1"/>
    <interval begin="600.00" end="630.00" id="o2" nVehContrib="2" flow="240.00" occupancy="80.63" speed="0.39" length="5.00" nVehEntered="2"/>
    <interval begin="600.00" end="630.00" id="o3" nVehContrib="1" flow="120.00" occupancy="99.84" speed="0.23" length="7.00" nVehEntered="0"/>
    <interval begin="630.00" end="660.00" id="i0" nVehContrib="2" flow="240.00" occupancy="35.80" speed="0.93" length="5.00" nVehEntered="2"/>
    <interval begin="630.00" end="660.00" id="i1" nVehContrib="1" flow="120.00" occupancy="89.95" speed="0.23" length="7.00" nVehEntered="1"/>
    <interval begin="630.00" end="660.00" id="i2" nVehContrib="2" flow="240.00" occupancy="37.55" speed="0.89" length="5.00" nVehEntered="2"/>
    <interval begin="630.00" end="660.00" id="i3" nVehContrib="1" flow="120.00" occupancy="91.48" speed="0.23" length="7.00" nVehEntered="1"/>
    <interval begin="630.00" end="660.00" id="o0" nVehContrib="1" flow="120.00" occupancy="44.75" speed="0.33" length="5.00" nVehEntered="1"/>
    <interval begin="630.00" end="660.00" id="o1" nVehContrib="1" flow="120.00" occupancy="91.47" speed="0.24" length="7.00" nVehEntered="1"/>
    <interval begin="630.00" end="660.00" id="o2" nVehContrib="1" flow="120.00" occupancy="89.20" speed="0.17" length="5.00" nVehEntered="1"/>
    <interval begin="630.00" end="660.00" id="o3" nVehContrib="0" flow="0.00" occupancy="91.45" speed="-1.00" length="-1.00" nVehEntered="1"/>
    <interval begin="660.00" end="690.00" id="i0" nVehContrib="0" flow="0.00" occupancy="29.87" speed="-1.00" length="-1.00" nVehEntered="1"/>
    <interval begin="660.00" end="690.00" id="i1" nVehContrib="1" flow="120.00" occupancy="91.12" speed="0.25" length="7.00" nVehEntered="1"/>
    <interval begin="660.00" end="690.00" id="i2" nVehContrib="1" flow="120.00" occupancy="20.36" speed="0.82" length="5.00" nVehEntered="1"/>
    <interval begin="660.00" end="690.00" id="i3" nVehContrib="1" flow="120.00" occupancy="89.30" speed="0.24" length="7.00" nVehEntered="1"/>
    <interval begin="660.00" end="690.00" id="o0" nVehContrib="2" flow="240.00" occupancy="66.09" speed="0.41" length="5.00" nVehEntered="1"/>
    <interval begin="660.00" end="690.00" id="o1" nVehContrib="1" flow="120.00" occupancy="90.93" speed="0.24" length="7.00" nVehEntered="1"/>
    <interval begin="660.00" end="690.00" id="o2" nVehContrib="1" flow="120.00" occupancy="90.12" speed="0.40" length="5.00" nVehEntered="1"/>
    <interval begin="660.00" end="690.00" id="o3" nVehContrib="1" flow="120.00" occupancy="91.28" speed="0.24" length="7.00" nVehEntered="1"/>
    <interval begin="690.00" end="720.00" id="i0" nVehContrib="2" flow="240.00" occupancy="23.24" speed="0.65" length="5.00" nVehEntered="1"/>
    <interval begin="690.00" end="720.00" id="i1" nVehContrib="1" flow="120.00" occupancy="90.64" speed="0.27" length="7.00" nVehEntered="1"/>
    <interval begin="690.00" end="720.00" id="i2" nVehContrib="1" flow="120.00" occupancy="24.53" speed="0.68" length="5.00" nVehEntered="1"/>
    <interval begin="690.00" end="720.00" id="i3" nVehContrib="1" flow="120.00" occupancy="91.19" speed="0.28" length="7.00" nVehEntered="1"/>
    <interval begin="690.00" end="720.00" id="o0" nVehContrib="0" flow="0.00" occupancy="65.17" speed="-1.00" length="-1.00" nVehEntered="1"/>
    <interval begin="690.00" end="720.00" id="o1" nVehContrib="1" flow="120.00" occupancy="89.33" speed="0.26" length="7.00" nVehEntered="1"/>
    <interval begin="690.00" end="720.00" id="o2" nVehContrib="1" flow="120.00" occupancy="87.87" speed="0.19" length="5.00" nVehEntered="1"/>
    <interval begin="690.00" end="720.00" id="o3" nVehContrib="1" flow="120.00" occupancy="89.56" speed="0.26" length="7.00" nVehEntered="1"/>
    <interval begin="720.00" end="750.00" id="i0" nVehContrib="1" flow="120.00" occupancy="27.89" speed="0.60" length="5.00" nVehEntered="1"/>
    <interval begin="720.00" end="750.00" id="i1" nVehContrib="0" flow="0.00" occupancy="100.00" speed="-1.00" length="-1.00" nVehEntered="0"/>
    <interval begin="720.00" end="750.00" id="i2" nVehContrib="1" flow="120.00" occupancy="23.54" speed="0.71" length="5.00" nVehEntered="1"/>
    <interval begin="720.00" end="750.00" id="i3" nVehContrib="0" flow="0.00" occupancy="100.00" speed="-1.00" length="-1.00" nVehEntered="0"/>
    <interval begin="720.00" end="750.00" id="o0" nVehContrib="2" flow="240.00" occupancy="77.83" speed="0.26" length="5.00" nVehEntered="2"/>
    <interval begin="720.00" end="750.00" id="o1" nVehContrib="1" flow="120.00" occupancy="91.58" speed="0.16" length="7.00" nVehEntered="1"/>
    <interval begin="720.00" end="750.00" id="o2" nVehContrib="2" flow="240.00" occupancy="77.00" speed="0.26" length="5.00" nVehEntered="2"/>
    <interval begin="720.00" end="750.00" id="o3" nVehContrib="1" flow="120.00" occupancy="90.56" speed="0.16" length="7.00" nVehEntered="1"/>
    <interval begin="750.00" end="780.00" id="i0" nVehContrib="1" flow="120.00" occupancy="32.56" speed="0.74" length="5.00" nVehEntered="2"/>
    <interval begin="750.00" end="780.00" id="i1" nVehContrib="1" flow="120.00" occupancy="90.39" speed="0.16" length="7.00" nVehEntered="1"/>
    <interval begin="750.00" end="780.00" id="i2" nVehContrib="1" flow="120.00" occupancy="36.02" speed="0.71" length="5.00" nVehEntered="2"/>