<?xml version="1.0" encoding="UTF-8"?>

<!-- generated on Sat Sep  9 22:22:20 2017 by SUMO gui Version 0.30.0
<?xml version="1.0" encoding="UTF-8"?>

<configuration xmlns:xsi="http://www.w3.org/2001/XMLSchema-instance" xsi:noNamespaceSchemaLocation="http://sumo.dlr.de/xsd/sumoConfiguration.xsd">

    <input>
        <net-file value="data/cross.net.xml"/>
        <route-files value="data/cross.rou.xml"/>
        <additional-files value="data/cross1.det.xml"/>
    </input>

    <output>
        <tripinfo-output value="tripinfo.xml"/>
    </output>

    <time>
        <begin value="0"/>
    </time>

    <report>
        <verbose value="true"/>
        <no-step-log value="true"/>
    </report>

    <traci_server>
        <remote-port value="52071"/>
    </traci_server>

    <gui_only>
        <gui-settings-file value="data/gui.settings.xml"/>
        <start value="true"/>
    </gui_only>

</configuration>
-->

<detector xmlns:xsi="http://www.w3.org/2001/XMLSchema-instance" xsi:noNamespaceSchemaLocation="http://sumo.dlr.de/xsd/det_e1_file.xsd">
    <interval begin="0.00" end="30.00" id="i0" nVehContrib="0" flow="0.00" occupancy="0.00" speed="-1.00" length="-1.00" nVehEntered="0"/>
    <interval begin="0.00" end="30.00" id="i1" nVehContrib="0" flow="0.00" occupancy="0.00" speed="-1.00" length="-1.00" nVehEntered="0"/>
    <interval begin="0.00" end="30.00" id="i2" nVehContrib="0" flow="0.00" occupancy="0.00" speed="-1.00" length="-1.00" nVehEntered="0"/>
    <interval begin="0.00" end="30.00" id="i3" nVehContrib="0" flow="0.00" occupancy="0.00" speed="-1.00" length="-1.00" nVehEntered="0"/>
    <interval begin="0.00" end="30.00" id="o0" nVehContrib="0" flow="0.00" occupancy="0.00" speed="-1.00" length="-1.00" nVehEntered="0"/>
    <interval begin="0.00" end="30.00" id="o1" nVehContrib="0" flow="0.00" occupancy="0.00" speed="-1.00" length="-1.00" nVehEntered="0"/>
    <interval begin="0.00" end="30.00" id="o2" nVehContrib="0" flow="0.00" occupancy="0.00" speed="-1.00" length="-1.00" nVehEntered="0"/>
    <interval begin="0.00" end="30.00" id="o3" nVehContrib="0" flow="0.00" occupancy="0.00" speed="-1.00" length="-1.00" nVehEntered="0"/>
    <interval begin="30.00" end="60.00" id="i0" nVehContrib="2" flow="240.00" occupancy="2.03" speed="16.44" length="5.00" nVehEntered="2"/>
    <interval begin="30.00" end="60.00" id="i1" nVehContrib="3" flow="360.00" occupancy="3.05" speed="16.40" length="5.00" nVehEntered="3"/>
    <interval begin="30.00" end="60.00" id="i2" nVehContrib="3" flow="360.00" occupancy="3.05" speed="16.40" length="5.00" nVehEntered="3"/>
    <interval begin="30.00" end="60.00" id="i3" nVehContrib="1" flow="120.00" occupancy="1.01" speed="16.48" length="5.00" nVehEntered="1"/>
    <interval begin="30.00" end="60.00" id="o0" nVehContrib="1" flow="120.00" occupancy="1.14" speed="14.64" length="5.00" nVehEntered="1"/>
    <interval begin="30.00" end="60.00" id="o1" nVehContrib="1" flow="120.00" occupancy="33.62" speed="0.50" length="5.00" nVehEntered="1"/>
    <interval begin="30.00" end="60.00" id="o2" nVehContrib="2" flow="240.00" occupancy="7.83" speed="15.07" length="5.00" nVehEntered="3"/>
    <interval begin="30.00" end="60.00" id="o3" nVehContrib="0" flow="0.00" occupancy="0.00" speed="-1.00" length="-1.00" nVehEntered="0"/>
    <interval begin="60.00" end="90.00" id="i0" nVehContrib="0" flow="0.00" occupancy="0.00" speed="-1.00" length="-1.00" nVehEntered="0"/>
    <interval begin="60.00" end="90.00" id="i1" nVehContrib="3" flow="360.00" occupancy="3.03" speed="16.48" length="5.00" nVehEntered="3"/>
    <interval begin="60.00" end="90.00" id="i2" nVehContrib="3" flow="360.00" occupancy="3.02" speed="16.54" length="5.00" nVehEntered="3"/>
    <interval begin="60.00" end="90.00" id="i3" nVehContrib="5" flow="600.00" occupancy="5.07" speed="16.42" length="5.00" nVehEntered="5"/>
    <interval begin="60.00" end="90.00" id="o0" nVehContrib="1" flow="120.00" occupancy="67.45" speed="0.25" length="5.00" nVehEntered="1"/>
    <interval begin="60.00" end="90.00" id="o1" nVehContrib="3" flow="360.00" occupancy="12.21" speed="6.65" length="5.00" nVehEntered="3"/>
    <interval begin="60.00" end="90.00" id="o2" nVehContrib="1" flow="120.00" occupancy="90.29" speed="0.18" length="5.00" nVehEntered="1"/>
    <interval begin="60.00" end="90.00" id="o3" nVehContrib="3" flow="360.00" occupancy="26.04" speed="14.38" length="5.00" nVehEntered="4"/>
    <interval begin="90.00" end="120.00" id="i0" nVehContrib="1" flow="120.00" occupancy="1.02" speed="16.41" length="5.00" nVehEntered="1"/>
    <interval begin="90.00" end="120.00" id="i1" nVehContrib="3" flow="360.00" occupancy="3.01" speed="16.62" length="5.00" nVehEntered="3"/>
    <interval begin="90.00" end="120.00" id="i2" nVehContrib="1" flow="120.00" occupancy="1.01" speed="16.53" length="5.00" nVehEntered="1"/>
    <interval begin="90.00" end="120.00" id="i3" nVehContrib="3" flow="360.00" occupancy="3.04" speed="16.46" length="5.00" nVehEntered="3"/>
    <interval begin="90.00" end="120.00" id="o0" nVehContrib="1" flow="120.00" occupancy="2.29" speed="7.29" length="5.00" nVehEntered="1"/>
    <interval begin="90.00" end="120.00" id="o1" nVehContrib="2" flow="240.00" occupancy="16.09" speed="2.54" length="5.00" nVehEntered="3"/>
    <interval begin="90.00" end="120.00" id="o2" nVehContrib="1" flow="120.00" occupancy="88.89" speed="0.21" length="5.00" nVehEntered="1"/>
    <interval begin="90.00" end="120.00" id="o3" nVehContrib="4" flow="480.00" occupancy="61.50" speed="3.77" length="5.00" nVehEntered="4"/>
    <interval begin="120.00" end="150.00" id="i0" nVehContrib="4" flow="480.00" occupancy="4.07" speed="16.38" length="5.00" nVehEntered="4"/>
    <interval begin="120.00" end="150.00" id="i1" nVehContrib="4" flow="480.00" occupancy="4.04" speed="16.49" length="5.00" nVehEntered="4"/>
    <interval begin="120.00" end="150.00" id="i2" nVehContrib="3" flow="360.00" occupancy="3.03" speed="16.51" length="5.00" nVehEntered="3"/>
    <interval begin="120.00" end="150.00" id="i3" nVehContrib="5" flow="600.00" occupancy="5.08" speed="16.42" length="5.00" nVehEntered="5"/>
    <interval begin="120.00" end="150.00" id="o0" nVehContrib="1" flow="120.00" occupancy="9.53" speed="6.11" length="5.00" nVehEntered="2"/>
    <interval begin="120.00" end="150.00" id="o1" nVehContrib="3" flow="360.00" occupancy="75.06" speed="1.24" length="5.00" nVehEntered="2"/>
    <interval begin="120.00" end="150.00" id="o2" nVehContrib="1" flow="120.00" occupancy="89.81" speed="0.23" length="5.00" nVehEntered="1"/>
    <interval begin="120.00" end="150.00" id="o3" nVehContrib="3" flow="360.00" occupancy="66.71" speed="1.08" length="5.00" nVehEntered="3"/>
    <interval begin="150.00" end="180.00" id="i0" nVehContrib="3" flow="360.00" occupancy="3.04" speed="16.44" length="5.00" nVehEntered="3"/>
    <interval begin="150.00" end="180.00" id="i1" nVehContrib="2" flow="240.00" occupancy="2.02" speed="16.48" length="5.00" nVehEntered="2"/>
    <interval begin="150.00" end="180.00" id="i2" nVehContrib="6" flow="720.00" occupancy="6.07" speed="16.49" length="5.00" nVehEntered="6"/>
    <interval begin="150.00" end="180.00" id="i3" nVehContrib="4" flow="480.00" occupancy="4.06" speed="16.40" length="5.00" nVehEntered="4"/>
    <interval begin="150.00" end="180.00" id="o0" nVehContrib="2" flow="240.00" occupancy="83.66" speed="1.38" length="5.00" nVehEntered="2"/>
    <interval begin="150.00" end="180.00" id="o1" nVehContrib="2" flow="240.00" occupancy="86.10" speed="3.32" length="5.00" nVehEntered="3"/>
    <interval begin="150.00" end="180.00" id="o2" nVehContrib="2" flow="240.00" occupancy="82.79" speed="1.29" length="5.00" nVehEntered="2"/>
    <interval begin="150.00" end="180.00" id="o3" nVehContrib="2" flow="240.00" occupancy="87.58" speed="3.27" length="5.00" nVehEntered="2"/>
    <interval begin="180.00" end="210.00" id="i0" nVehContrib="3" flow="360.00" occupancy="3.04" speed="16.43" length="5.00" nVehEntered="3"/>
    <interval begin="180.00" end="210.00" id="i1" nVehContrib="5" flow="600.00" occupancy="5.07" speed="16.43" length="5.00" nVehEntered="5"/>
    <interval begin="180.00" end="210.00" id="i2" nVehContrib="3" flow="360.00" occupancy="3.04" speed="16.44" length="5.00" nVehEntered="3"/>
    <interval begin="180.00" end="210.00" id="i3" nVehContrib="4" flow="480.00" occupancy="4.06" speed="16.42" length="5.00" nVehEntered="4"/>
    <interval begin="180.00" end="210.00" id="o0" nVehContrib="3" flow="360.00" occupancy="78.12" speed="2.22" length="5.00" nVehEntered="3"/>
    <interval begin="180.00" end="210.00" id="o1" nVehContrib="2" flow="240.00" occupancy="82.96" speed="1.17" length="5.00" nVehEntered="1"/>
    <interval begin="180.00" end="210.00" id="o2" nVehContrib="3" flow="360.00" occupancy="76.70" speed="2.29" length="5.00" nVehEntered="3"/>
    <interval begin="180.00" end="210.00" id="o3" nVehContrib="2" flow="240.00" occupancy="80.21" speed="1.33" length="5.00" nVehEntered="1"/>
    <interval begin="210.00" end="240.00" id="i0" nVehContrib="5" flow="600.00" occupancy="5.06" speed="16.48" length="5.00" nVehEntered="5"/>
    <interval begin="210.00" end="240.00" id="i1" nVehContrib="5" flow="600.00" occupancy="5.07" speed="16.45" length="5.00" nVehEntered="5"/>
    <interval begin="210.00" end="240.00" id="i2" nVehContrib="0" flow="0.00" occupancy="0.00" speed="-1.00" length="-1.00" nVehEntered="0"/>
    <interval begin="210.00" end="240.00" id="i3" nVehContrib="4" flow="480.00" occupancy="4.06" speed="16.43" length="5.00" nVehEntered="4"/>
    <interval begin="210.00" end="240.00" id="o0" nVehContrib="1" flow="120.00" occupancy="89.72" speed="0.19" length="5.00" nVehEntered="1"/>
    <interval begin="210.00" end="240.00" id="o1" nVehContrib="4" flow="480.00" occupancy="71.46" speed="2.74" length="5.00" nVehEntered="5"/>
    <interval begin="210.00" end="240.00" id="o2" nVehContrib="1" flow="120.00" occupancy="89.74" speed="0.19" length="5.00" nVehEntered="1"/>
    <interval begin="210.00" end="240.00" id="o3" nVehContrib="4" flow="480.00" occupancy="68.84" speed="2.92" length="5.00" nVehEntered="4"/>
    <interval begin="240.00" end="270.00" id="i0" nVehContrib="3" flow="360.00" occupancy="3.03" speed="16.49" length="5.00" nVehEntered="3"/>
    <interval begin="240.00" end="270.00" id="i1" nVehContrib="6" flow="720.00" occupancy="6.08" speed="16.45" length="5.00" nVehEntered="6"/>
    <interval begin="240.00" end="270.00" id="i2" nVehContrib="3" flow="360.00" occupancy="3.04" speed="16.46" length="5.00" nVehEntered="3"/>
    <interval begin="240.00" end="270.00" id="i3" nVehContrib="1" flow="120.00" occupancy="1.02" speed="16.37" length="5.00" nVehEntered="1"/>
    <interval begin="240.00" end="270.00" id="o0" nVehContrib="1" flow="120.00" occupancy="90.24" speed="0.22" length="5.00" nVehEntered="1"/>
    <interval begin="240.00" end="270.00" id="o1" nVehContrib="2" flow="240.00" occupancy="70.60" speed="1.32" length="5.00" nVehEntered="1"/>
    <interval begin="240.00" end="270.00" id="o2" nVehContrib="1" flow="120.00" occupancy="91.44" speed="0.22" length="5.00" nVehEntered="1"/>
    <interval begin="240.00" end="270.00" id="o3" nVehContrib="1" flow="120.00" occupancy="89.23" speed="0.26" length="5.00" nVehEntered="2"/>
    <interval begin="270.00" end="300.00" id="i0" nVehContrib="4" flow="480.00" occupancy="4.05" speed="16.45" length="5.00" nVehEntered="4"/>
    <interval begin="270.00" end="300.00" id="i1" nVehContrib="4" flow="480.00" occupancy="4.03" speed="16.55" length="5.00" nVehEntered="4"/>
    <interval begin="270.00" end="300.00" id="i2" nVehContrib="3" flow="360.00" occupancy="3.04" speed="16.44" length="5.00" nVehEntered="3"/>
    <interval begin="270.00" end="300.00" id="i3" nVehContrib="4" flow="480.00" occupancy="4.05" speed="16.45" length="5.00" nVehEntered="4"/>
    <interval begin="270.00" end="300.00" id="o0" nVehContrib="1" flow="120.00" occupancy="89.62" speed="0.13" length="5.00" nVehEntered="1"/>
    <interval begin="270.00" end="300.00" id="o1" nVehContrib="1" flow="120.00" occupancy="58.40" speed="2.27" length="5.00" nVehEntered="2"/>
    <interval begin="270.00" end="300.00" id="o2" nVehContrib="1" flow="120.00" occupancy="87.94" speed="0.13" length="5.00" nVehEntered="1"/>
    <interval begin="270.00" end="300.00" id="o3" nVehContrib="1" flow="120.00" occupancy="88.84" speed="0.32" length="5.00" nVehEntered="1"/>
    <interval begin="300.00" end="330.00" id="i0" nVehContrib="2" flow="240.00" occupancy="2.02" speed="16.52" length="5.00" nVehEntered="2"/>
    <interval begin="300.00" end="330.00" id="i1" nVehContrib="2" flow="240.00" occupancy="2.03" speed="16.43" length="5.00" nVehEntered="2"/>
    <interval begin="300.00" end="330.00" id="i2" nVehContrib="2" flow="240.00" occupancy="2.03" speed="16.45" length="5.00" nVehEntered="2"/>
    <interval begin="300.00" end="330.00" id="i3" nVehContrib="3" flow="360.00" occupancy="3.03" speed="16.49" length="5.00" nVehEntered="3"/>
    <interval begin="300.00" end="330.00" id="o0" nVehContrib="3" flow="360.00" occupancy="76.03" speed="2.27" length="5.00" nVehEntered="3"/>
    <interval begin="300.00" end="330.00" id="o1" nVehContrib="3" flow="360.00" occupancy="78.31" speed="2.27" length="5.00" nVehEntered="3"/>
    <interval begin="300.00" end="330.00" id="o2" nVehContrib="3" flow="360.00" occupancy="75.40" speed="2.21" length="5.00" nVehEntered="3"/>
    <interval begin="300.00" end="330.00" id="o3" nVehContrib="2" flow="240.00" occupancy="83.22" speed="1.45" length="5.00" nVehEntered="2"/>
    <interval begin="330.00" end="360.00" id="i0" nVehContrib="1" flow="120.00" occupancy="1.01" speed="16.54" length="5.00" nVehEntered="1"/>
    <interval begin="330.00" end="360.00" id="i1" nVehContrib="4" flow="480.00" occupancy="4.04" speed="16.51" length="5.00" nVehEntered="4"/>
    <interval begin="330.00" end="360.00" id="i2" nVehContrib="5" flow="600.00" occupancy="5.05" speed="16.50" length="5.00" nVehEntered="5"/>
    <interval begin="330.00" end="360.00" id="i3" nVehContrib="5" flow="600.00" occupancy="5.06" speed="16.48" length="5.00" nVehEntered="5"/>
    <interval begin="330.00" end="360.00" id="o0" nVehContrib="2" flow="240.00" occupancy="83.47" speed="1.33" length="5.00" nVehEntered="1"/>
    <interval begin="330.00" end="360.00" id="o1" nVehContrib="4" flow="480.00" occupancy="72.83" speed="2.72" length="5.00" nVehEntered="4"/>
    <interval begin="330.00" end="360.00" id="o2" nVehContrib="2" flow="240.00" occupancy="84.35" speed="1.34" length="5.00" nVehEntered="1"/>
    <interval begin="330.00" end="360.00" id="o3" nVehContrib="4" flow="480.00" occupancy="69.92" speed="2.89" length="5.00" nVehEntered="4"/>
    <interval begin="360.00" end="390.00" id="i0" nVehContrib="5" flow="600.00" occupancy="5.08" speed="16.39" length="5.00" nVehEntered="5"/>
    <interval begin="360.00" end="390.00" id="i1" nVehContrib="6" flow="720.00" occupancy="6.09" speed="16.42" length="5.00" nVehEntered="6"/>
    <interval begin="360.00" end="390.00" id="i2" nVehContrib="4" flow="480.00" occupancy="4.04" speed="16.50" length="5.00" nVehEntered="4"/>
    <interval begin="360.00" end="390.00" id="i3" nVehContrib="2" flow="240.00" occupancy="2.02" speed="16.46" length="5.00" nVehEntered="2"/>
    <interval begin="360.00" end="390.00" id="o0" nVehContrib="2" flow="240.00" occupancy="83.48" speed="1.40" length="5.00" nVehEntered="3"/>
    <interval begin="360.00" end="390.00" id="o1" nVehContrib="1" flow="120.00" occupancy="89.80" speed="0.22" length="5.00" nVehEntered="1"/>
    <interval begin="360.00" end="390.00" id="o2" nVehContrib="2" flow="240.00" occupancy="82.16" speed="1.41" length="5.00" nVehEntered="3"/>
    <interval begin="360.00" end="390.00" id="o3" nVehContrib="1" flow="120.00" occupancy="89.67" speed="0.23" length="5.00" nVehEntered="1"/>
    <interval begin="390.00" end="420.00" id="i0" nVehContrib="4" flow="480.00" occupancy="4.04" speed="16.50" length="5.00" nVehEntered="4"/>
    <interval begin="390.00" end="420.00" id="i1" nVehContrib="5" flow="600.00" occupancy="5.47" speed="15.37" length="5.00" nVehEntered="5"/>
    <interval begin="390.00" end="420.00" id="i2" nVehContrib="5" flow="600.00" occupancy="5.06" speed="16.47" length="5.00" nVehEntered="5"/>
    <interval begin="390.00" end="420.00" id="i3" nVehContrib="2" flow="240.00" occupancy="2.02" speed="16.52" length="5.00" nVehEntered="2"/>
    <interval begin="390.00" end="420.00" id="o0" nVehContrib="2" flow="240.00" occupancy="83.32" speed="1.31" length="5.00" nVehEntered="2"/>
    <interval begin="390.00" end="420.00" id="o1" nVehContrib="3" flow="360.00" occupancy="77.05" speed="1.06" length="5.00" nVehEntered="2"/>
    <interval begin="390.00" end="420.00" id="o2" nVehContrib="2" flow="240.00" occupancy="84.08" speed="1.42" length="5.00" nVehEntered="2"/>
    <interval begin="390.00" end="420.00" id="o3" nVehContrib="2" flow="240.00" occupancy="83.79" speed="0.23" length="5.00" nVehEntered="1"/>
    <interval begin="420.00" end="450.00" id="i0" nVehContrib="3" flow="360.00" occupancy="3.04" speed="16.42" length="5.00" nVehEntered="3"/>
    <interval begin="420.00" end="450.00" id="i1" nVehContrib="4" flow="480.00" occupancy="7.41" speed="10.24" length="5.00" nVehEntered="4"/>
    <interval begin="420.00" end="450.00" id="i2" nVehContrib="4" flow="480.00" occupancy="4.37" speed="15.30" length="5.00" nVehEntered="4"/>
    <interval begin="420.00" end="450.00" id="i3" nVehContrib="2" flow="240.00" occupancy="2.01" speed="16.59" length="5.00" nVehEntered="2"/>
    <interval begin="420.00" end="450.00" id="o0" nVehContrib="4" flow="480.00" occupancy="72.21" speed="2.68" length="5.00" nVehEntered="4"/>
    <interval begin="420.00" end="450.00" id="o1" nVehContrib="1" flow="120.00" occupancy="85.79" speed="2.66" length="5.00" nVehEntered="2"/>
    <interval begin="420.00" end="450.00" id="o2" nVehContrib="4" flow="480.00" occupancy="71.30" speed="2.94" length="5.00" nVehEntered="4"/>
    <interval begin="420.00" end="450.00" id="o3" nVehContrib="1" flow="120.00" occupancy="89.07" speed="2.44" length="5.00" nVehEntered="2"/>
    <interval begin="450.00" end="480.00" id="i0" nVehContrib="4" flow="480.00" occupancy="4.05" speed="16.44" length="5.00" nVehEntered="4"/>
    <interval begin="450.00" end="480.00" id="i1" nVehContrib="1" flow="120.00" occupancy="1.57" speed="10.62" length="5.00" nVehEntered="1"/>
    <interval begin="450.00" end="480.00" id="i2" nVehContrib="4" flow="480.00" occupancy="4.46" speed="14.99" length="5.00" nVehEntered="4"/>
    <interval begin="450.00" end="480.00" id="i3" nVehContrib="3" flow="360.00" occupancy="3.05" speed="16.40" length="5.00" nVehEntered="3"/>
    <interval begin="450.00" end="480.00" id="o0" nVehContrib="2" flow="240.00" occupancy="82.97" speed="1.42" length="5.00" nVehEntered="2"/>
    <interval begin="450.00" end="480.00" id="o1" nVehContrib="2" flow="240.00" occupancy="83.62" speed="0.20" length="5.00" nVehEntered="1"/>
    <interval begin="450.00" end="480.00" id="o2" nVehContrib="2" flow="240.00" occupancy="81.92" speed="1.41" length="5.00" nVehEntered="2"/>
    <interval begin="450.00" end="480.00" id="o3" nVehContrib="2" flow="240.00" occupancy="82.70" speed="0.20" length="5.00" nVehEntered="1"/>
    <interval begin="480.00" end="510.00" id="i0" nVehContrib="3" flow="360.00" occupancy="3.03" speed="16.51" length="5.00" nVehEntered="3"/>
    <interval begin="480.00" end="510.00" id="i1" nVehContrib="2" flow="240.00" occupancy="7.45" speed="6.74" length="5.00" nVehEntered="3"/>
    <interval begin="480.00" end="510.00" id="i2" nVehContrib="2" flow="240.00" occupancy="2.35" speed="14.18" length="5.00" nVehEntered="2"/>
    <interval begin="480.00" end="510.00" id="i3" nVehContrib="3" flow="360.00" occupancy="3.05" speed="16.41" length="5.00" nVehEntered="3"/>
    <interval begin="480.00" end="510.00" id="o0" nVehContrib="1" flow="120.00" occupancy="90.02" speed="0.26" length="5.00" nVehEntered="1"/>
    <interval begin="480.00" end="510.00" id="o1" nVehContrib="1" flow="120.00" occupancy="87.20" speed="0.26" length="5.00" nVehEntered="2"/>
    <interval begin="480.00" end="510.00" id="o2" nVehContrib="1" flow="120.00" occupancy="89.62" speed="0.27" length="5.00" nVehEntered="1"/>
    <interval begin="480.00" end="510.00" id="o3" nVehContrib="1" flow="120.00" occupancy="86.66" speed="0.26" length="5.00" nVehEntered="2"/>
    <interval begin="510.00" end="540.00" id="i0" nVehContrib="3" flow="360.00" occupancy="3.04" speed="16.45" length="5.00" nVehEntered="3"/>
    <interval begin="510.00" end="540.00" id="i1" nVehContrib="2" flow="240.00" occupancy="27.16" speed="1.19" length="5.00" nVehEntered="1"/>
    <interval begin="510.00" end="540.00" id="i2" nVehContrib="3" flow="360.00" occupancy="4.36" speed="11.54" length="5.00" nVehEntered="3"/>
    <interval begin="510.00" end="540.00" id="i3" nVehContrib="3" flow="360.00" occupancy="3.03" speed="16.50" length="5.00" nVehEntered="3"/>
    <interval begin="510.00" end="540.00" id="o0" nVehContrib="2" flow="240.00" occupancy="87.64" speed="0.23" length="5.00" nVehEntered="1"/>
    <interval begin="510.00" end="540.00" id="o1" nVehContrib="4" flow="480.00" occupancy="70.79" speed="2.82" length="5.00" nVehEntered="4"/>
    <interval begin="510.00" end="540.00" id="o2" nVehContrib="2" flow="240.00" occupancy="88.75" speed="0.23" length="5.00" nVehEntered="1"/>
    <interval begin="510.00" end="540.00" id="o3" nVehContrib="3" flow="360.00" occupancy="75.37" speed="2.15" length="5.00" nVehEntered="3"/>
    <interval begin="540.00" end="570.00" id="i0" nVehContrib="5" flow="600.00" occupancy="7.69" speed="12.00" length="5.00" nVehEntered="5"/>
    <interval begin="540.00" end="570.00" id="i1" nVehContrib="3" flow="360.00" occupancy="20.52" speed="3.10" length="5.00" nVehEntered="3"/>
    <interval begin="540.00" end="570.00" id="i2" nVehContrib="2" flow="240.00" occupancy="4.93" speed="7.42" length="5.00" nVehEntered="2"/>
    <interval begin="540.00" end="570.00" id="i3" nVehContrib="2" flow="240.00" occupancy="2.03" speed="16.46" length="5.00" nVehEntered="2"/>
    <interval begin="540.00" end="570.00" id="o0" nVehContrib="6" flow="720.00" occupancy="56.05" speed="5.05" length="5.00" nVehEntered="7"/>
    <interval begin="540.00" end="570.00" id="o1" nVehContrib="1" flow="120.00" occupancy="89.21" speed="0.16" length="5.00" nVehEntered="1"/>
    <interval begin="540.00" end="570.00" id="o2" nVehContrib="6" flow="720.00" occupancy="55.12" speed="5.06" length="5.00" nVehEntered="7"/>
    <interval begin="540.00" end="570.00" id="o3" nVehContrib="1" flow="120.00" occupancy="89.61" speed="0.15" length="5.00" nVehEntered="1"/>
    <interval begin="570.00" end="600.00" id="i0" nVehContrib="5" flow="600.00" occupancy="6.78" speed="13.12" length="5.00" nVehEntered="5"/>
    <interval begin="570.00" end="600.00" id="i1" nVehContrib="1" flow="120.00" occupancy="3.11" speed="5.37" length="5.00" nVehEntered="1"/>
    <interval begin="570.00" end="600.00" id="i2" nVehContrib="5" flow="600.00" occupancy="24.57" speed="5.54" length="5.00" nVehEntered="5"/>
    <interval begin="570.00" end="600.00" id="i3" nVehContrib="3" flow="360.00" occupancy="3.04" speed="16.44" length="5.00" nVehEntered="3"/>
    <interval begin="570.00" end="600.00" id="o0" nVehContrib="4" flow="480.00" occupancy="71.58" speed="2.95" length="5.00" nVehEntered="4"/>
    <interval begin="570.00" end="600.00" id="o1" nVehContrib="3" flow="360.00" occupancy="82.37" speed="3.67" length="5.00" nVehEntered="3"/>
    <interval begin="570.00" end="600.00" id="o2" nVehContrib="4" flow="480.00" occupancy="72.61" speed="2.88" length="5.00" nVehEntered="4"/>
    <interval begin="570.00" end="600.00" id="o3" nVehContrib="3" flow="360.00" occupancy="9.22" speed="3.53" length="5.00" nVehEntered="2"/>
    <interval begin="600.00" end="630.00" id="i0" nVehContrib="3" flow="360.00" occupancy="3.77" speed="13.77" length="5.00" nVehEntered="3"/>
    <interval begin="600.00" end="630.00" id="i1" nVehContrib="4" flow="480.00" occupancy="7.03" speed="11.24" length="5.00" nVehEntered="4"/>
    <interval begin="600.00" end="630.00" id="i2" nVehContrib="2" flow="240.00" occupancy="2.79" speed="12.51" length="5.00" nVehEntered="2"/>
    <interval begin="600.00" end="630.00" id="i3" nVehContrib="1" flow="120.00" occupancy="1.01" speed="16.49" length="5.00" nVehEntered="1"/>
    <interval begin="600.00" end="630.00" id="o0" nVehContrib="1" flow="120.00" occupancy="90.41" speed="0.29" length="5.00" nVehEntered="1"/>
    <interval begin="600.00" end="630.00" id="o1" nVehContrib="1" flow="120.00" occupancy="89.78" speed="0.19" length="5.00" nVehEntered="1"/>
    <interval begin="600.00" end="630.00" id="o2" nVehContrib="1" flow="120.00" occupancy="89.81" speed="0.29" length="5.00" nVehEntered="1"/>
    <interval begin="600.00" end="630.00" id="o3" nVehContrib="0" flow="0.00" occupancy="76.89" speed="-1.00" length="-1.00" nVehEntered="1"/>
    <interval begin="630.00" end="660.00" id="i0" nVehContrib="2" flow="240.00" occupancy="2.82" speed="12.05" length="5.00" nVehEntered="2"/>
    <interval begin="630.00" end="660.00" id="i1" nVehContrib="1" flow="120.00" occupancy="17.20" speed="0.97" length="5.00" nVehEntered="1"/>
    <interval begin="630.00" end="660.00" id="i2" nVehContrib="2" flow="240.00" occupancy="2.54" speed="13.35" length="5.00" nVehEntered="2"/>
    <interval begin="630.00" end="660.00" id="i3" nVehContrib="0" flow="0.00" occupancy="0.00" speed="-1.00" length="-1.00" nVehEntered="0"/>
    <interval begin="630.00" end="660.00" id="o0" nVehContrib="4" flow="480.00" occupancy="70.20" speed="2.79" length="5.00" nVehEntered="4"/>
    <interval begin="630.00" end="660.00" id="o1" nVehContrib="2" flow="240.00" occupancy="80.51" speed="1.19" length="5.00" nVehEntered="2"/>
    <interval begin="630.00" end="660.00" id="o2" nVehContrib="4" flow="480.00" occupancy="71.41" speed="2.89" length="5.00" nVehEntered="4"/>
    <interval begin="630.00" end="660.00" id="o3" nVehContrib="2" flow="240.00" occupancy="81.63" speed="1.21" length="5.00" nVehEntered="2"/>
    <interval begin="660.00" end="690.00" id="i0" nVehContrib="3" flow="360.00" occupancy="3.17" speed="15.82" length="5.00" nVehEntered="3"/>
    <interval begin="660.00" end="690.00" id="i1" nVehContrib="1" flow="120.00" occupancy="16.77" speed="1.30" length="5.00" nVehEntered="2"/>
    <interval begin="660.00" end="690.00" id="i2" nVehContrib="4" flow="480.00" occupancy="4.29" speed="15.62" length="5.00" nVehEntered="4"/>
    <interval begin="660.00" end="690.00" id="i3" nVehContrib="6" flow="720.00" occupancy="7.27" speed="14.10" length="5.00" nVehEntered="6"/>
    <interval begin="660.00" end="690.00" id="o0" nVehContrib="2" flow="240.00" occupancy="84.25" speed="1.32" length="5.00" nVehEntered="2"/>
    <interval begin="660.00" end="690.00" id="o1" nVehContrib="4" flow="480.00" occupancy="78.26" speed="3.63" length="5.00" nVehEntered="3"/>
    <interval begin="660.00" end="690.00" id="o2" nVehContrib="2" flow="240.00" occupancy="84.51" speed="1.40" length="5.00" nVehEntered="2"/>
    <interval begin="660.00" end="690.00" id="o3" nVehContrib="4" flow="480.00" occupancy="80.84" speed="3.51" length="5.00" nVehEntered="3"/>
    <interval begin="690.00" end="720.00" id="i0" nVehContrib="1" flow="120.00" occupancy="1.05" speed="15.83" length="5.00" nVehEntered="1"/>
    <interval begin="690.00" end="720.00" id="i1" nVehContrib="4" flow="480.00" occupancy="19.14" speed="3.51" length="5.00" nVehEntered="3"/>
    <interval begin="690.00" end="720.00" id="i2" nVehContrib="3" flow="360.00" occupancy="5.10" speed="10.18" length="5.00" nVehEntered="3"/>
    <interval begin="690.00" end="720.00" id="i3" nVehContrib="2" flow="240.00" occupancy="2.09" speed="15.95" length="5.00" nVehEntered="2"/>
    <interval begin="690.00" end="720.00" id="o0" nVehContrib="2" flow="240.00" occupancy="84.36" speed="1.34" length="5.00" nVehEntered="2"/>
    <interval begin="690.00" end="720.00" id="o1" nVehContrib="2" flow="240.00" occupancy="78.93" speed="1.33" length="5.00" nVehEntered="2"/>
    <interval begin="690.00" end="720.00" id="o2" nVehContrib="2" flow="240.00" occupancy="81.23" speed="1.36" length="5.00" nVehEntered="2"/>
    <interval begin="690.00" end="720.00" id="o3" nVehContrib="2" flow="240.00" occupancy="79.41" speed="1.37" length="5.00" nVehEntered="2"/>
    <interval begin="720.00" end="750.00" id="i0" nVehContrib="3" flow="360.00" occupancy="3.55" speed="14.21" length="5.00" nVehEntered="3"/>
    <interval begin="720.00" end="750.00" id="i1" nVehContrib="2" flow="240.00" occupancy="17.27" speed="2.08" length="5.00" nVehEntered="2"/>
    <interval begin="720.00" end="750.00" id="i2" nVehContrib="4" flow="480.00" occupancy="27.63" speed="4.40" length="5.00" nVehEntered="4"/>
    <interval begin="720.00" end="750.00" id="i3" nVehContrib="3" flow="360.00" occupancy="3.47" speed="14.55" length="5.00" nVehEntered="3"/>
    <interval begin="720.00" end="750.00" id="o0" nVehContrib="3" flow="360.00" occupancy="76.97" speed="2.10" length="5.00" nVehEntered="3"/>
    <interval begin="720.00" end="750.00" id="o1" nVehContrib="2" flow="240.00" occupancy="86.34" speed="1.29" length="5.00" nVehEntered="2"/>
    <interval begin="720.00" end="750.00" id="o2" nVehContrib="3" flow="360.00" occupancy="77.96" speed="2.19" length="5.00" nVehEntered="3"/>
    <interval begin="720.00" end="750.00" id="o3" nVehContrib="2" flow="240.00" occupancy="86.92" speed="1.33" length="5.00" nVehEntered="2"/>
    <interval begin="750.00" end="780.00" id="i0" nVehContrib="3" flow="360.00" occupancy="3.85" speed="13.03" length="5.00" nVehEntered="3"/>
    <interval begin="750.00" end="780.00" id="i1" nVehContrib="2" flow="240.00" occupancy="19.16" speed="1.90" length="5.00" nVehEntered="2"/>