<?xml version="1.0" encoding="UTF-8"?>

<!-- generated on Fri Sep  8 11:22:18 2017 by SUMO gui Version 0.30.0
<?xml version="1.0" encoding="UTF-8"?>

<configuration xmlns:xsi="http://www.w3.org/2001/XMLSchema-instance" xsi:noNamespaceSchemaLocation="http://sumo.dlr.de/xsd/sumoConfiguration.xsd">

    <input>
        <net-file value="data/cross.net.xml"/>
        <route-files value="data/cross.rou.xml"/>
        <additional-files value="data/cross1.det.xml"/>
    </input>

    <output>
        <tripinfo-output value="tripinfo.xml"/>
    </output>

    <time>
        <begin value="0"/>
    </time>

    <report>
        <verbose value="true"/>
        <no-step-log value="true"/>
    </report>

    <traci_server>
        <remote-port value="49558"/>
    </traci_server>

    <gui_only>
        <gui-settings-file value="data/gui.settings.xml"/>
    </gui_only>

</configuration>
-->

<detector xmlns:xsi="http://www.w3.org/2001/XMLSchema-instance" xsi:noNamespaceSchemaLocation="http://sumo.dlr.de/xsd/det_e1_file.xsd">
    <interval begin="0.00" end="30.00" id="i0" nVehContrib="0" flow="0.00" occupancy="0.00" speed="-1.00" length="-1.00" nVehEntered="0"/>
    <interval begin="0.00" end="30.00" id="i1" nVehContrib="0" flow="0.00" occupancy="0.00" speed="-1.00" length="-1.00" nVehEntered="0"/>
    <interval begin="0.00" end="30.00" id="i2" nVehContrib="0" flow="0.00" occupancy="0.00" speed="-1.00" length="-1.00" nVehEntered="0"/>
    <interval begin="0.00" end="30.00" id="i3" nVehContrib="0" flow="0.00" occupancy="0.00" speed="-1.00" length="-1.00" nVehEntered="0"/>
    <interval begin="0.00" end="30.00" id="o0" nVehContrib="0" flow="0.00" occupancy="0.00" speed="-1.00" length="-1.00" nVehEntered="0"/>
    <interval begin="0.00" end="30.00" id="o1" nVehContrib="0" flow="0.00" occupancy="0.00" speed="-1.00" length="-1.00" nVehEntered="0"/>
    <interval begin="0.00" end="30.00" id="o2" nVehContrib="0" flow="0.00" occupancy="0.00" speed="-1.00" length="-1.00" nVehEntered="0"/>
    <interval begin="0.00" end="30.00" id="o3" nVehContrib="0" flow="0.00" occupancy="0.00" speed="-1.00" length="-1.00" nVehEntered="0"/>
    <interval begin="30.00" end="60.00" id="i0" nVehContrib="3" flow="360.00" occupancy="3.04" speed="16.43" length="5.00" nVehEntered="3"/>
    <interval begin="30.00" end="60.00" id="i1" nVehContrib="3" flow="360.00" occupancy="3.66" speed="19.10" length="7.00" nVehEntered="3"/>
    <interval begin="30.00" end="60.00" id="i2" nVehContrib="4" flow="480.00" occupancy="4.03" speed="16.53" length="5.00" nVehEntered="4"/>
    <interval begin="30.00" end="60.00" id="i3" nVehContrib="1" flow="120.00" occupancy="1.22" speed="19.08" length="7.00" nVehEntered="1"/>
    <interval begin="30.00" end="60.00" id="o0" nVehContrib="1" flow="120.00" occupancy="19.47" speed="14.96" length="5.00" nVehEntered="2"/>
    <interval begin="30.00" end="60.00" id="o1" nVehContrib="0" flow="0.00" occupancy="49.83" speed="-1.00" length="-1.00" nVehEntered="1"/>
    <interval begin="30.00" end="60.00" id="o2" nVehContrib="2" flow="240.00" occupancy="7.72" speed="13.95" length="5.00" nVehEntered="3"/>
    <interval begin="30.00" end="60.00" id="o3" nVehContrib="0" flow="0.00" occupancy="30.19" speed="-1.00" length="-1.00" nVehEntered="1"/>
    <interval begin="60.00" end="90.00" id="i0" nVehContrib="2" flow="240.00" occupancy="2.02" speed="16.54" length="5.00" nVehEntered="2"/>
    <interval begin="60.00" end="90.00" id="i1" nVehContrib="1" flow="120.00" occupancy="1.24" speed="18.86" length="7.00" nVehEntered="1"/>
    <interval begin="60.00" end="90.00" id="i2" nVehContrib="2" flow="240.00" occupancy="2.01" speed="16.55" length="5.00" nVehEntered="2"/>
    <interval begin="60.00" end="90.00" id="i3" nVehContrib="3" flow="360.00" occupancy="3.65" speed="19.18" length="7.00" nVehEntered="3"/>
    <interval begin="60.00" end="90.00" id="o0" nVehContrib="2" flow="240.00" occupancy="27.27" speed="1.48" length="5.00" nVehEntered="2"/>
    <interval begin="60.00" end="90.00" id="o1" nVehContrib="1" flow="120.00" occupancy="90.57" speed="0.19" length="7.00" nVehEntered="1"/>
    <interval begin="60.00" end="90.00" id="o2" nVehContrib="3" flow="360.00" occupancy="79.81" speed="1.21" length="5.00" nVehEntered="2"/>
    <interval begin="60.00" end="90.00" id="o3" nVehContrib="1" flow="120.00" occupancy="90.66" speed="0.23" length="7.00" nVehEntered="1"/>
    <interval begin="90.00" end="120.00" id="i0" nVehContrib="4" flow="480.00" occupancy="4.03" speed="16.53" length="5.00" nVehEntered="4"/>
    <interval begin="90.00" end="120.00" id="i1" nVehContrib="3" flow="360.00" occupancy="3.63" speed="19.30" length="7.00" nVehEntered="3"/>
    <interval begin="90.00" end="120.00" id="i2" nVehContrib="3" flow="360.00" occupancy="3.01" speed="16.63" length="5.00" nVehEntered="3"/>
    <interval begin="90.00" end="120.00" id="i3" nVehContrib="5" flow="600.00" occupancy="6.16" speed="18.95" length="7.00" nVehEntered="5"/>
    <interval begin="90.00" end="120.00" id="o0" nVehContrib="3" flow="360.00" occupancy="54.02" speed="5.37" length="5.00" nVehEntered="3"/>
    <interval begin="90.00" end="120.00" id="o1" nVehContrib="1" flow="120.00" occupancy="90.49" speed="0.22" length="7.00" nVehEntered="1"/>
    <interval begin="90.00" end="120.00" id="o2" nVehContrib="1" flow="120.00" occupancy="39.92" speed="2.43" length="5.00" nVehEntered="2"/>
    <interval begin="90.00" end="120.00" id="o3" nVehContrib="1" flow="120.00" occupancy="91.63" speed="0.22" length="7.00" nVehEntered="1"/>
    <interval begin="120.00" end="150.00" id="i0" nVehContrib="5" flow="600.00" occupancy="5.04" speed="16.53" length="5.00" nVehEntered="5"/>
    <interval begin="120.00" end="150.00" id="i1" nVehContrib="1" flow="120.00" occupancy="1.22" speed="19.11" length="7.00" nVehEntered="1"/>
    <interval begin="120.00" end="150.00" id="i2" nVehContrib="1" flow="120.00" occupancy="1.01" speed="16.50" length="5.00" nVehEntered="1"/>
    <interval begin="120.00" end="150.00" id="i3" nVehContrib="5" flow="600.00" occupancy="6.07" speed="19.23" length="7.00" nVehEntered="5"/>
    <interval begin="120.00" end="150.00" id="o0" nVehContrib="1" flow="120.00" occupancy="89.45" speed="0.17" length="5.00" nVehEntered="1"/>
    <interval begin="120.00" end="150.00" id="o1" nVehContrib="1" flow="120.00" occupancy="91.85" speed="0.46" length="7.00" nVehEntered="1"/>
    <interval begin="120.00" end="150.00" id="o2" nVehContrib="1" flow="120.00" occupancy="89.12" speed="0.17" length="5.00" nVehEntered="1"/>
    <interval begin="120.00" end="150.00" id="o3" nVehContrib="1" flow="120.00" occupancy="89.81" speed="0.47" length="7.00" nVehEntered="1"/>
    <interval begin="150.00" end="180.00" id="i0" nVehContrib="6" flow="720.00" occupancy="6.07" speed="16.46" length="5.00" nVehEntered="6"/>
    <interval begin="150.00" end="180.00" id="i1" nVehContrib="0" flow="0.00" occupancy="0.00" speed="-1.00" length="-1.00" nVehEntered="0"/>
    <interval begin="150.00" end="180.00" id="i2" nVehContrib="4" flow="480.00" occupancy="4.03" speed="16.54" length="5.00" nVehEntered="4"/>
    <interval begin="150.00" end="180.00" id="i3" nVehContrib="1" flow="120.00" occupancy="1.22" speed="19.18" length="7.00" nVehEntered="1"/>
    <interval begin="150.00" end="180.00" id="o0" nVehContrib="1" flow="120.00" occupancy="90.60" speed="0.35" length="5.00" nVehEntered="1"/>
    <interval begin="150.00" end="180.00" id="o1" nVehContrib="0" flow="0.00" occupancy="100.00" speed="-1.00" length="-1.00" nVehEntered="0"/>
    <interval begin="150.00" end="180.00" id="o2" nVehContrib="1" flow="120.00" occupancy="90.07" speed="0.34" length="5.00" nVehEntered="1"/>
    <interval begin="150.00" end="180.00" id="o3" nVehContrib="0" flow="0.00" occupancy="100.00" speed="-1.00" length="-1.00" nVehEntered="0"/>
    <interval begin="180.00" end="210.00" id="i0" nVehContrib="3" flow="360.00" occupancy="3.04" speed="16.43" length="5.00" nVehEntered="3"/>
    <interval begin="180.00" end="210.00" id="i1" nVehContrib="2" flow="240.00" occupancy="2.43" speed="19.23" length="7.00" nVehEntered="2"/>
    <interval begin="180.00" end="210.00" id="i2" nVehContrib="3" flow="360.00" occupancy="3.04" speed="16.47" length="5.00" nVehEntered="3"/>
    <interval begin="180.00" end="210.00" id="i3" nVehContrib="3" flow="360.00" occupancy="3.70" speed="18.94" length="7.00" nVehEntered="3"/>
    <interval begin="180.00" end="210.00" id="o0" nVehContrib="1" flow="120.00" occupancy="89.70" speed="0.15" length="5.00" nVehEntered="1"/>
    <interval begin="180.00" end="210.00" id="o1" nVehContrib="1" flow="120.00" occupancy="91.20" speed="0.15" length="7.00" nVehEntered="1"/>
    <interval begin="180.00" end="210.00" id="o2" nVehContrib="1" flow="120.00" occupancy="88.49" speed="0.15" length="5.00" nVehEntered="1"/>
    <interval begin="180.00" end="210.00" id="o3" nVehContrib="1" flow="120.00" occupancy="90.63" speed="0.15" length="7.00" nVehEntered="1"/>
    <interval begin="210.00" end="240.00" id="i0" nVehContrib="3" flow="360.00" occupancy="3.04" speed="16.47" length="5.00" nVehEntered="3"/>
    <interval begin="210.00" end="240.00" id="i1" nVehContrib="3" flow="360.00" occupancy="3.68" speed="19.04" length="7.00" nVehEntered="3"/>
    <interval begin="210.00" end="240.00" id="i2" nVehContrib="3" flow="360.00" occupancy="3.01" speed="16.62" length="5.00" nVehEntered="3"/>
    <interval begin="210.00" end="240.00" id="i3" nVehContrib="5" flow="600.00" occupancy="8.03" speed="15.39" length="7.00" nVehEntered="5"/>
    <interval begin="210.00" end="240.00" id="o0" nVehContrib="1" flow="120.00" occupancy="87.97" speed="0.19" length="5.00" nVehEntered="1"/>
    <interval begin="210.00" end="240.00" id="o1" nVehContrib="1" flow="120.00" occupancy="90.66" speed="0.22" length="7.00" nVehEntered="1"/>
    <interval begin="210.00" end="240.00" id="o2" nVehContrib="1" flow="120.00" occupancy="88.95" speed="0.20" length="5.00" nVehEntered="1"/>
    <interval begin="210.00" end="240.00" id="o3" nVehContrib="1" flow="120.00" occupancy="91.15" speed="0.22" length="7.00" nVehEntered="1"/>
    <interval begin="240.00" end="270.00" id="i0" nVehContrib="4" flow="480.00" occupancy="4.06" speed="16.43" length="5.00" nVehEntered="4"/>
    <interval begin="240.00" end="270.00" id="i1" nVehContrib="1" flow="120.00" occupancy="1.25" speed="18.66" length="7.00" nVehEntered="1"/>
    <interval begin="240.00" end="270.00" id="i2" nVehContrib="3" flow="360.00" occupancy="3.04" speed="16.45" length="5.00" nVehEntered="3"/>
    <interval begin="240.00" end="270.00" id="i3" nVehContrib="1" flow="120.00" occupancy="69.74" speed="9.33" length="7.00" nVehEntered="2"/>
    <interval begin="240.00" end="270.00" id="o0" nVehContrib="3" flow="360.00" occupancy="74.12" speed="1.07" length="5.00" nVehEntered="3"/>
    <interval begin="240.00" end="270.00" id="o1" nVehContrib="1" flow="120.00" occupancy="89.71" speed="0.24" length="7.00" nVehEntered="1"/>
    <interval begin="240.00" end="270.00" id="o2" nVehContrib="3" flow="360.00" occupancy="72.44" speed="1.11" length="5.00" nVehEntered="3"/>
    <interval begin="240.00" end="270.00" id="o3" nVehContrib="1" flow="120.00" occupancy="91.33" speed="0.24" length="7.00" nVehEntered="1"/>
    <interval begin="270.00" end="300.00" id="i0" nVehContrib="2" flow="240.00" occupancy="2.03" speed="16.42" length="5.00" nVehEntered="2"/>
    <interval begin="270.00" end="300.00" id="i1" nVehContrib="2" flow="240.00" occupancy="2.52" speed="18.52" length="7.00" nVehEntered="2"/>
    <interval begin="270.00" end="300.00" id="i2" nVehContrib="3" flow="360.00" occupancy="3.03" speed="16.48" length="5.00" nVehEntered="3"/>
    <interval begin="270.00" end="300.00" id="i3" nVehContrib="1" flow="120.00" occupancy="90.57" speed="0.30" length="7.00" nVehEntered="1"/>
    <interval begin="270.00" end="300.00" id="o0" nVehContrib="2" flow="240.00" occupancy="88.69" speed="0.31" length="5.00" nVehEntered="1"/>
    <interval begin="270.00" end="300.00" id="o1" nVehContrib="2" flow="240.00" occupancy="84.63" speed="1.65" length="7.00" nVehEntered="2"/>
    <interval begin="270.00" end="300.00" id="o2" nVehContrib="2" flow="240.00" occupancy="87.64" speed="0.31" length="5.00" nVehEntered="1"/>
    <interval begin="270.00" end="300.00" id="o3" nVehContrib="2" flow="240.00" occupancy="82.31" speed="1.74" length="7.00" nVehEntered="2"/>
    <interval begin="300.00" end="330.00" id="i0" nVehContrib="3" flow="360.00" occupancy="3.03" speed="16.51" length="5.00" nVehEntered="3"/>
    <interval begin="300.00" end="330.00" id="i1" nVehContrib="3" flow="360.00" occupancy="3.66" speed="19.10" length="7.00" nVehEntered="3"/>
    <interval begin="300.00" end="330.00" id="i2" nVehContrib="5" flow="600.00" occupancy="5.09" speed="16.46" length="5.00" nVehEntered="6"/>
    <interval begin="300.00" end="330.00" id="i3" nVehContrib="2" flow="240.00" occupancy="84.18" speed="1.63" length="7.00" nVehEntered="2"/>
    <interval begin="300.00" end="330.00" id="o0" nVehContrib="1" flow="120.00" occupancy="81.11" speed="0.34" length="5.00" nVehEntered="2"/>
    <interval begin="300.00" end="330.00" id="o1" nVehContrib="1" flow="120.00" occupancy="90.95" speed="0.21" length="7.00" nVehEntered="1"/>
    <interval begin="300.00" end="330.00" id="o2" nVehContrib="1" flow="120.00" occupancy="83.24" speed="0.33" length="5.00" nVehEntered="2"/>
    <interval begin="300.00" end="330.00" id="o3" nVehContrib="1" flow="120.00" occupancy="90.31" speed="0.21" length="7.00" nVehEntered="1"/>
    <interval begin="330.00" end="360.00" id="i0" nVehContrib="3" flow="360.00" occupancy="3.13" speed="16.00" length="5.00" nVehEntered="3"/>
    <interval begin="330.00" end="360.00" id="i1" nVehContrib="1" flow="120.00" occupancy="1.28" speed="18.22" length="7.00" nVehEntered="1"/>
    <interval begin="330.00" end="360.00" id="i2" nVehContrib="4" flow="480.00" occupancy="4.04" speed="16.41" length="5.00" nVehEntered="3"/>
    <interval begin="330.00" end="360.00" id="i3" nVehContrib="1" flow="120.00" occupancy="90.47" speed="0.21" length="7.00" nVehEntered="1"/>
    <interval begin="330.00" end="360.00" id="o0" nVehContrib="2" flow="240.00" occupancy="56.40" speed="0.38" length="5.00" nVehEntered="1"/>
    <interval begin="330.00" end="360.00" id="o1" nVehContrib="2" flow="240.00" occupancy="86.17" speed="0.54" length="7.00" nVehEntered="1"/>
    <interval begin="330.00" end="360.00" id="o2" nVehContrib="1" flow="120.00" occupancy="90.64" speed="0.39" length="5.00" nVehEntered="1"/>
    <interval begin="330.00" end="360.00" id="o3" nVehContrib="2" flow="240.00" occupancy="86.26" speed="0.54" length="7.00" nVehEntered="1"/>
    <interval begin="360.00" end="390.00" id="i0" nVehContrib="3" flow="360.00" occupancy="3.46" speed="14.69" length="5.00" nVehEntered="3"/>
    <interval begin="360.00" end="390.00" id="i1" nVehContrib="3" flow="360.00" occupancy="3.63" speed="19.26" length="7.00" nVehEntered="3"/>
    <interval begin="360.00" end="390.00" id="i2" nVehContrib="3" flow="360.00" occupancy="3.03" speed="16.52" length="5.00" nVehEntered="3"/>
    <interval begin="360.00" end="390.00" id="i3" nVehContrib="2" flow="240.00" occupancy="81.32" speed="0.56" length="7.00" nVehEntered="2"/>
    <interval begin="360.00" end="390.00" id="o0" nVehContrib="1" flow="120.00" occupancy="50.16" speed="0.33" length="5.00" nVehEntered="1"/>
    <interval begin="360.00" end="390.00" id="o1" nVehContrib="1" flow="120.00" occupancy="86.39" speed="0.53" length="7.00" nVehEntered="2"/>
    <interval begin="360.00" end="390.00" id="o2" nVehContrib="2" flow="240.00" occupancy="66.99" speed="0.25" length="5.00" nVehEntered="1"/>
    <interval begin="360.00" end="390.00" id="o3" nVehContrib="1" flow="120.00" occupancy="87.90" speed="0.51" length="7.00" nVehEntered="2"/>
    <interval begin="390.00" end="420.00" id="i0" nVehContrib="3" flow="360.00" occupancy="6.55" speed="8.13" length="5.00" nVehEntered="3"/>
    <interval begin="390.00" end="420.00" id="i1" nVehContrib="4" flow="480.00" occupancy="4.91" speed="19.00" length="7.00" nVehEntered="4"/>
    <interval begin="390.00" end="420.00" id="i2" nVehContrib="2" flow="240.00" occupancy="2.01" speed="16.57" length="5.00" nVehEntered="2"/>
    <interval begin="390.00" end="420.00" id="i3" nVehContrib="2" flow="240.00" occupancy="80.61" speed="0.50" length="7.00" nVehEntered="2"/>
    <interval begin="390.00" end="420.00" id="o0" nVehContrib="1" flow="120.00" occupancy="33.27" speed="2.44" length="5.00" nVehEntered="2"/>
    <interval begin="390.00" end="420.00" id="o1" nVehContrib="2" flow="240.00" occupancy="85.39" speed="1.81" length="7.00" nVehEntered="2"/>
    <interval begin="390.00" end="420.00" id="o2" nVehContrib="1" flow="120.00" occupancy="33.36" speed="2.19" length="5.00" nVehEntered="2"/>
    <interval begin="390.00" end="420.00" id="o3" nVehContrib="2" flow="240.00" occupancy="85.17" speed="1.97" length="7.00" nVehEntered="2"/>
    <interval begin="420.00" end="450.00" id="i0" nVehContrib="2" flow="240.00" occupancy="31.72" speed="1.45" length="5.00" nVehEntered="2"/>
    <interval begin="420.00" end="450.00" id="i1" nVehContrib="1" flow="120.00" occupancy="1.21" speed="19.33" length="7.00" nVehEntered="1"/>
    <interval begin="420.00" end="450.00" id="i2" nVehContrib="3" flow="360.00" occupancy="3.55" speed="14.16" length="5.00" nVehEntered="3"/>
    <interval begin="420.00" end="450.00" id="i3" nVehContrib="1" flow="120.00" occupancy="92.61" speed="3.20" length="7.00" nVehEntered="1"/>
    <interval begin="420.00" end="450.00" id="o0" nVehContrib="2" flow="240.00" occupancy="88.72" speed="0.30" length="5.00" nVehEntered="1"/>
    <interval begin="420.00" end="450.00" id="o1" nVehContrib="2" flow="240.00" occupancy="85.16" speed="1.53" length="7.00" nVehEntered="2"/>
    <interval begin="420.00" end="450.00" id="o2" nVehContrib="2" flow="240.00" occupancy="87.05" speed="0.30" length="5.00" nVehEntered="1"/>
    <interval begin="420.00" end="450.00" id="o3" nVehContrib="2" flow="240.00" occupancy="83.92" speed="1.55" length="7.00" nVehEntered="2"/>
    <interval begin="450.00" end="480.00" id="i0" nVehContrib="1" flow="120.00" occupancy="17.61" speed="0.95" length="5.00" nVehEntered="1"/>
    <interval begin="450.00" end="480.00" id="i1" nVehContrib="1" flow="120.00" occupancy="1.21" speed="19.27" length="7.00" nVehEntered="1"/>
    <interval begin="450.00" end="480.00" id="i2" nVehContrib="3" flow="360.00" occupancy="4.29" speed="11.93" length="5.00" nVehEntered="3"/>
    <interval begin="450.00" end="480.00" id="i3" nVehContrib="2" flow="240.00" occupancy="84.15" speed="1.70" length="7.00" nVehEntered="2"/>
    <interval begin="450.00" end="480.00" id="o0" nVehContrib="1" flow="120.00" occupancy="83.45" speed="0.38" length="5.00" nVehEntered="2"/>
    <interval begin="450.00" end="480.00" id="o1" nVehContrib="1" flow="120.00" occupancy="90.26" speed="0.22" length="7.00" nVehEntered="1"/>
    <interval begin="450.00" end="480.00" id="o2" nVehContrib="1" flow="120.00" occupancy="81.19" speed="0.40" length="5.00" nVehEntered="2"/>
    <interval begin="450.00" end="480.00" id="o3" nVehContrib="1" flow="120.00" occupancy="91.60" speed="0.23" length="7.00" nVehEntered="1"/>
    <interval begin="480.00" end="510.00" id="i0" nVehContrib="2" flow="240.00" occupancy="33.40" speed="1.00" length="5.00" nVehEntered="2"/>
    <interval begin="480.00" end="510.00" id="i1" nVehContrib="3" flow="360.00" occupancy="3.70" speed="18.92" length="7.00" nVehEntered="3"/>
    <interval begin="480.00" end="510.00" id="i2" nVehContrib="2" flow="240.00" occupancy="3.05" speed="10.99" length="5.00" nVehEntered="2"/>
    <interval begin="480.00" end="510.00" id="i3" nVehContrib="1" flow="120.00" occupancy="89.66" speed="0.22" length="7.00" nVehEntered="1"/>
    <interval begin="480.00" end="510.00" id="o0" nVehContrib="1" flow="120.00" occupancy="88.28" speed="0.18" length="5.00" nVehEntered="1"/>
    <interval begin="480.00" end="510.00" id="o1" nVehContrib="1" flow="120.00" occupancy="91.57" speed="0.24" length="7.00" nVehEntered="1"/>
    <interval begin="480.00" end="510.00" id="o2" nVehContrib="1" flow="120.00" occupancy="43.70" speed="0.34" length="5.00" nVehEntered="1"/>
    <interval begin="480.00" end="510.00" id="o3" nVehContrib="1" flow="120.00" occupancy="91.00" speed="0.24" length="7.00" nVehEntered="1"/>
    <interval begin="510.00" end="540.00" id="i0" nVehContrib="1" flow="120.00" occupancy="17.44" speed="0.96" length="5.00" nVehEntered="1"/>
    <interval begin="510.00" end="540.00" id="i1" nVehContrib="1" flow="120.00" occupancy="1.31" speed="17.86" length="7.00" nVehEntered="1"/>
    <interval begin="510.00" end="540.00" id="i2" nVehContrib="0" flow="0.00" occupancy="0.00" speed="-1.00" length="-1.00" nVehEntered="0"/>
    <interval begin="510.00" end="540.00" id="i3" nVehContrib="1" flow="120.00" occupancy="90.18" speed="0.24" length="7.00" nVehEntered="1"/>
    <interval begin="510.00" end="540.00" id="o0" nVehContrib="1" flow="120.00" occupancy="87.46" speed="0.15" length="5.00" nVehEntered="1"/>
    <interval begin="510.00" end="540.00" id="o1" nVehContrib="2" flow="240.00" occupancy="84.36" speed="1.95" length="7.00" nVehEntered="2"/>
    <interval begin="510.00" end="540.00" id="o2" nVehContrib="1" flow="120.00" occupancy="89.01" speed="0.14" length="5.00" nVehEntered="1"/>
    <interval begin="510.00" end="540.00" id="o3" nVehContrib="2" flow="240.00" occupancy="85.24" speed="1.84" length="7.00" nVehEntered="2"/>
    <interval begin="540.00" end="570.00" id="i0" nVehContrib="0" flow="0.00" occupancy="20.28" speed="-1.00" length="-1.00" nVehEntered="1"/>
    <interval begin="540.00" end="570.00" id="i1" nVehContrib="3" flow="360.00" occupancy="3.67" speed="19.09" length="7.00" nVehEntered="3"/>
    <interval begin="540.00" end="570.00" id="i2" nVehContrib="2" flow="240.00" occupancy="20.97" speed="8.30" length="5.00" nVehEntered="3"/>
    <interval begin="540.00" end="570.00" id="i3" nVehContrib="3" flow="360.00" occupancy="84.56" speed="1.22" length="7.00" nVehEntered="2"/>
    <interval begin="540.00" end="570.00" id="o0" nVehContrib="0" flow="0.00" occupancy="100.00" speed="-1.00" length="-1.00" nVehEntered="0"/>
    <interval begin="540.00" end="570.00" id="o1" nVehContrib="3" flow="360.00" occupancy="82.75" speed="1.45" length="7.00" nVehEntered="2"/>
    <interval begin="540.00" end="570.00" id="o2" nVehContrib="0" flow="0.00" occupancy="100.00" speed="-1.00" length="-1.00" nVehEntered="0"/>
    <interval begin="540.00" end="570.00" id="o3" nVehContrib="3" flow="360.00" occupancy="83.13" speed="1.28" length="7.00" nVehEntered="2"/>
    <interval begin="570.00" end="600.00" id="i0" nVehContrib="1" flow="120.00" occupancy="7.30" speed="0.60" length="5.00" nVehEntered="0"/>
    <interval begin="570.00" end="600.00" id="i1" nVehContrib="4" flow="480.00" occupancy="5.69" speed="16.70" length="7.00" nVehEntered="4"/>
    <interval begin="570.00" end="600.00" id="i2" nVehContrib="1" flow="120.00" occupancy="4.55" speed="0.79" length="5.00" nVehEntered="0"/>
    <interval begin="570.00" end="600.00" id="i3" nVehContrib="2" flow="240.00" occupancy="75.96" speed="1.73" length="7.00" nVehEntered="3"/>
    <interval begin="570.00" end="600.00" id="o0" nVehContrib="1" flow="120.00" occupancy="88.15" speed="0.12" length="5.00" nVehEntered="1"/>
    <interval begin="570.00" end="600.00" id="o1" nVehContrib="1" flow="120.00" occupancy="84.29" speed="0.43" length="7.00" nVehEntered="2"/>
    <interval begin="570.00" end="600.00" id="o2" nVehContrib="1" flow="120.00" occupancy="88.68" speed="0.12" length="5.00" nVehEntered="1"/>
    <interval begin="570.00" end="600.00" id="o3" nVehContrib="1" flow="120.00" occupancy="84.10" speed="0.43" length="7.00" nVehEntered="2"/>
    <interval begin="600.00" end="630.00" id="i0" nVehContrib="1" flow="120.00" occupancy="24.28" speed="0.69" length="5.00" nVehEntered="1"/>
    <interval begin="600.00" end="630.00" id="i1" nVehContrib="3" flow="360.00" occupancy="30.32" speed="11.67" length="7.00" nVehEntered="4"/>
    <interval begin="600.00" end="630.00" id="i2" nVehContrib="1" flow="120.00" occupancy="23.75" speed="0.70" length="5.00" nVehEntered="1"/>
    <interval begin="600.00" end="630.00" id="i3" nVehContrib="1" flow="120.00" occupancy="91.12" speed="0.42" length="7.00" nVehEntered="1"/>
    <interval begin="600.00" end="630.00" id="o0" nVehContrib="1" flow="120.00" occupancy="88.48" speed="0.14" length="5.00" nVehEntered="1"/>
    <interval begin="600.00" end="630.00" id="o1" nVehContrib="2" flow="240.00" occupancy="84.24" speed="0.41" length="7.00" nVehEntered="1"/>
    <interval begin="600.00" end="630.00" id="o2" nVehContrib="1" flow="120.00" occupancy="87.06" speed="0.14" length="5.00" nVehEntered="1"/>
    <interval begin="600.00" end="630.00" id="o3" nVehContrib="2" flow="240.00" occupancy="83.80" speed="0.41" length="7.00" nVehEntered="1"/>
    <interval begin="630.00" end="660.00" id="i0" nVehContrib="1" flow="120.00" occupancy="21.60" speed="0.77" length="5.00" nVehEntered="1"/>
    <interval begin="630.00" end="660.00" id="i1" nVehContrib="2" flow="240.00" occupancy="81.52" speed="0.67" length="7.00" nVehEntered="2"/>
    <interval begin="630.00" end="660.00" id="i2" nVehContrib="1" flow="120.00" occupancy="27.42" speed="0.61" length="5.00" nVehEntered="1"/>
    <interval begin="630.00" end="660.00" id="i3" nVehContrib="2" flow="240.00" occupancy="82.52" speed="0.42" length="7.00" nVehEntered="2"/>
    <interval begin="630.00" end="660.00" id="o0" nVehContrib="1" flow="120.00" occupancy="85.78" speed="0.15" length="5.00" nVehEntered="1"/>
    <interval begin="630.00" end="660.00" id="o1" nVehContrib="1" flow="120.00" occupancy="89.68" speed="0.45" length="7.00" nVehEntered="2"/>
    <interval begin="630.00" end="660.00" id="o2" nVehContrib="1" flow="120.00" occupancy="78.32" speed="0.15" length="5.00" nVehEntered="0"/>
    <interval begin="630.00" end="660.00" id="o3" nVehContrib="1" flow="120.00" occupancy="89.60" speed="0.46" length="7.00" nVehEntered="2"/>
    <interval begin="660.00" end="690.00" id="i0" nVehContrib="0" flow="0.00" occupancy="19.80" speed="-1.00" length="-1.00" nVehEntered="1"/>
    <interval begin="660.00" end="690.00" id="i1" nVehContrib="2" flow="240.00" occupancy="78.95" speed="0.47" length="7.00" nVehEntered="1"/>
    <interval begin="660.00" end="690.00" id="i2" nVehContrib="0" flow="0.00" occupancy="6.18" speed="-1.00" length="-1.00" nVehEntered="1"/>
    <interval begin="660.00" end="690.00" id="i3" nVehContrib="2" flow="240.00" occupancy="81.21" speed="0.47" length="7.00" nVehEntered="2"/>
    <interval begin="660.00" end="690.00" id="o0" nVehContrib="1" flow="120.00" occupancy="90.07" speed="0.34" length="5.00" nVehEntered="1"/>
    <interval begin="660.00" end="690.00" id="o1" nVehContrib="2" flow="240.00" occupancy="81.60" speed="0.46" length="7.00" nVehEntered="2"/>
    <interval begin="660.00" end="690.00" id="o2" nVehContrib="0" flow="0.00" occupancy="51.43" speed="-1.00" length="-1.00" nVehEntered="1"/>
    <interval begin="660.00" end="690.00" id="o3" nVehContrib="2" flow="240.00" occupancy="81.11" speed="0.46" length="7.00" nVehEntered="2"/>
    <interval begin="690.00" end="720.00" id="i0" nVehContrib="2" flow="240.00" occupancy="21.50" speed="0.81" length="5.00" nVehEntered="1"/>
    <interval begin="690.00" end="720.00" id="i1" nVehContrib="1" flow="120.00" occupancy="3.84" speed="9.27" length="7.00" nVehEntered="2"/>
    <interval begin="690.00" end="720.00" id="i2" nVehContrib="1" flow="120.00" occupancy="62.74" speed="0.24" length="5.00" nVehEntered="0"/>
    <interval begin="690.00" end="720.00" id="i3" nVehContrib="1" flow="120.00" occupancy="90.17" speed="0.45" length="7.00" nVehEntered="1"/>
    <interval begin="690.00" end="720.00" id="o0" nVehContrib="1" flow="120.00" occupancy="89.13" speed="0.16" length="5.00" nVehEntered="1"/>
    <interval begin="690.00" end="720.00" id="o1" nVehContrib="2" flow="240.00" occupancy="82.73" speed="0.48" length="7.00" nVehEntered="2"/>
    <interval begin="690.00" end="720.00" id="o2" nVehContrib="1" flow="120.00" occupancy="87.70" speed="0.16" length="5.00" nVehEntered="1"/>
    <interval begin="690.00" end="720.00" id="o3" nVehContrib="2" flow="240.00" occupancy="81.80" speed="0.48" length="7.00" nVehEntered="2"/>
    <interval begin="720.00" end="750.00" id="i0" nVehContrib="1" flow="120.00" occupancy="21.37" speed="0.78" length="5.00" nVehEntered="1"/>
    <interval begin="720.00" end="750.00" id="i1" nVehContrib="2" flow="240.00" occupancy="33.17" speed="1.66" length="7.00" nVehEntered="1"/>
    <interval begin="720.00" end="750.00" id="i2" nVehContrib="1" flow="120.00" occupancy="23.85" speed="0.70" length="5.00" nVehEntered="1"/>
    <interval begin="720.00" end="750.00" id="i3" nVehContrib="2" flow="240.00" occupancy="80.44" speed="0.49" length="7.00" nVehEntered="2"/>
    <interval begin="720.00" end="750.00" id="o0" nVehContrib="1" flow="120.00" occupancy="88.24" speed="0.19" length="5.00" nVehEntered="1"/>
    <interval begin="720.00" end="750.00" id="o1" nVehContrib="1" flow="120.00" occupancy="90.87" speed="0.27" length="7.00" nVehEntered="1"/>
    <interval begin="720.00" end="750.00" id="o2" nVehContrib="1" flow="120.00" occupancy="88.22" speed="0.19" length="5.00" nVehEntered="1"/>
    <interval begin="720.00" end="750.00" id="o3" nVehContrib="1" flow="120.00" occupancy="90.64" speed="0.27" length="7.00" nVehEntered="1"/>
    <interval begin="750.00" end="780.00" id="i0" nVehContrib="1" flow="120.00" occupancy="27.04" speed="0.62" length="5.00" nVehEntered="1"/>
    <interval begin="750.00" end="780.00" id="i1" nVehContrib="1" flow="120.00" occupancy="79.12" speed="0.47" length="7.00" nVehEntered="2"/>
    <interval begin="750.00" end="780.00" id="i2" nVehContrib="1" flow="120.00" occupancy="23.85" speed="0.70" length="5.00" nVehEntered="1"/>