<?xml version="1.0" encoding="UTF-8"?>

<!-- generated on Fri Sep  8 11:25:12 2017 by SUMO gui Version 0.30.0
<?xml version="1.0" encoding="UTF-8"?>

<configuration xmlns:xsi="http://www.w3.org/2001/XMLSchema-instance" xsi:noNamespaceSchemaLocation="http://sumo.dlr.de/xsd/sumoConfiguration.xsd">

    <input>
        <net-file value="data/cross.net.xml"/>
        <route-files value="data/cross.rou.xml"/>
        <additional-files value="data/cross1.det.xml"/>
    </input>

    <output>
        <tripinfo-output value="tripinfo.xml"/>
    </output>

    <time>
        <begin value="0"/>
    </time>

    <report>
        <verbose value="true"/>
        <no-step-log value="true"/>
    </report>

    <traci_server>
        <remote-port value="49621"/>
    </traci_server>

    <gui_only>
        <gui-settings-file value="data/gui.settings.xml"/>
    </gui_only>

</configuration>
-->

<detector xmlns:xsi="http://www.w3.org/2001/XMLSchema-instance" xsi:noNamespaceSchemaLocation="http://sumo.dlr.de/xsd/det_e1_file.xsd">
</detector>
l begin="0.00" end="30.00" id="i0" nVehContrib="0" flow="0.00" occupancy="0.00" speed="-1.00" length="-1.00" nVehEntered="0"/>
    <interval begin="0.00" end="30.00" id="i1" nVehContrib="0" flow="0.00" occupancy="0.00" speed="-1.00" length="-1.00" nVehEntered="0"/>
    <interval begin="0.00" end="30.00" id="i2" nVehContrib="0" flow="0.00" occupancy="0.00" speed="-1.00" length="-1.00" nVehEntered="0"/>
    <interval begin="0.00" end="30.00" id="i3" nVehContrib="0" flow="0.00" occupancy="0.00" speed="-1.00" length="-1.00" nVehEntered="0"/>
    <interval begin="0.00" end="30.00" id="o0" nVehContrib="0" flow="0.00" occupancy="0.00" speed="-1.00" length="-1.00" nVehEntered="0"/>
    <interval begin="0.00" end="30.00" id="o1" nVehContrib="0" flow="0.00" occupancy="0.00" speed="-1.00" length="-1.00" nVehEntered="0"/>
    <interval begin="0.00" end="30.00" id="o2" nVehContrib="0" flow="0.00" occupancy="0.00" speed="-1.00" length="-1.00" nVehEntered="0"/>
    <interval begin="0.00" end="30.00" id="o3" nVehContrib="0" flow="0.00" occupancy="0.00" speed="-1.00" length="-1.00" nVehEntered="0"/>
    <interval begin="30.00" end="60.00" id="i0" nVehContrib="0" flow="0.00" occupancy="0.00" speed="-1.00" length="-1.00" nVehEntered="0"/>
    <interval begin="30.00" end="60.00" id="i1" nVehContrib="3" flow="360.00" occupancy="3.66" speed="19.14" length="7.00" nVehEntered="3"/>
    <interval begin="30.00" end="60.00" id="i2" nVehContrib="3" flow="360.00" occupancy="3.02" speed="16.58" length="5.00" nVehEntered="3"/>
    <interval begin="30.00" end="60.00" id="i3" nVehContrib="3" flow="360.00" occupancy="3.71" speed="18.86" length="7.00" nVehEntered="3"/>
    <interval begin="30.00" end="60.00" id="o0" nVehContrib="0" flow="0.00" occupancy="0.00" speed="-1.00" length="-1.00" nVehEntered="0"/>
    <interval begin="30.00" end="60.00" id="o1" nVehContrib="0" flow="0.00" occupancy="44.66" speed="-1.00" length="-1.00" nVehEntered="1"/>
    <interval begin="30.00" end="60.00" id="o2" nVehContrib="1" flow="120.00" occupancy="3.44" speed="4.84" length="5.00" nVehEntered="1"/>
    <interval begin="30.00" end="60.00" id="o3" nVehContrib="0" flow="0.00" occupancy="45.11" speed="-1.00" length="-1.00" nVehEntered="1"/>
    <interval begin="60.00" end="90.00" id="i0" nVehContrib="2" flow="240.00" occupancy="2.01" speed="16.55" length="5.00" nVehEntered="2"/>
    <interval begin="60.00" end="90.00" id="i1" nVehContrib="3" flow="360.00" occupancy="3.64" speed="19.24" length="7.00" nVehEntered="3"/>
    <interval begin="60.00" end="90.00" id="i2" nVehContrib="4" flow="480.00" occupancy="4.06" speed="16.42" length="5.00" nVehEntered="4"/>
    <interval begin="60.00" end="90.00" id="i3" nVehContrib="3" flow="360.00" occupancy="3.65" speed="19.16" length="7.00" nVehEntered="3"/>
    <interval begin="60.00" end="90.00" id="o0" nVehContrib="0" flow="0.00" occupancy="12.39" speed="-1.00" length="-1.00" nVehEntered="1"/>
    <interval begin="60.00" end="90.00" id="o1" nVehContrib="2" flow="240.00" occupancy="82.38" speed="0.41" length="7.00" nVehEntered="2"/>
    <interval begin="60.00" end="90.00" id="o2" nVehContrib="1" flow="120.00" occupancy="71.22" speed="0.52" length="5.00" nVehEntered="2"/>
    <interval begin="60.00" end="90.00" id="o3" nVehContrib="2" flow="240.00" occupancy="81.53" speed="0.42" length="7.00" nVehEntered="2"/>
    <interval begin="90.00" end="120.00" id="i0" nVehContrib="4" flow="480.00" occupancy="4.03" speed="16.53" length="5.00" nVehEntered="4"/>
    <interval begin="90.00" end="120.00" id="i1" nVehContrib="4" flow="480.00" occupancy="4.86" speed="19.21" length="7.00" nVehEntered="4"/>
    <interval begin="90.00" end="120.00" id="i2" nVehContrib="4" flow="480.00" occupancy="4.07" speed="16.39" length="5.00" nVehEntered="4"/>
    <interval begin="90.00" end="120.00" id="i3" nVehContrib="3" flow="360.00" occupancy="3.65" speed="19.18" length="7.00" nVehEntered="3"/>
    <interval begin="90.00" end="120.00" id="o0" nVehContrib="1" flow="120.00" occupancy="89.25" speed="0.21" length="5.00" nVehEntered="1"/>
    <interval begin="90.00" end="120.00" id="o1" nVehContrib="2" flow="240.00" occupancy="90.03" speed="0.48" length="7.00" nVehEntered="1"/>
    <interval begin="90.00" end="120.00" id="o2" nVehContrib="1" flow="120.00" occupancy="68.85" speed="0.15" length="5.00" nVehEntered="0"/>
    <interval begin="90.00" end="120.00" id="o3" nVehContrib="2" flow="240.00" occupancy="90.04" speed="0.48" length="7.00" nVehEntered="1"/>
    <interval begin="120.00" end="150.00" id="i0" nVehContrib="3" flow="360.00" occupancy="3.04" speed="16.45" length="5.00" nVehEntered="3"/>
    <interval begin="120.00" end="150.00" id="i1" nVehContrib="2" flow="240.00" occupancy="2.44" speed="19.10" length="7.00" nVehEntered="2"/>
    <interval begin="120.00" end="150.00" id="i2" nVehContrib="3" flow="360.00" occupancy="3.03" speed="16.49" length="5.00" nVehEntered="3"/>
    <interval begin="120.00" end="150.00" id="i3" nVehContrib="4" flow="480.00" occupancy="5.54" speed="18.94" length="7.00" nVehEntered="5"/>
    <interval begin="120.00" end="150.00" id="o0" nVehContrib="2" flow="240.00" occupancy="61.97" speed="0.40" length="5.00" nVehEntered="1"/>
    <interval begin="120.00" end="150.00" id="o1" nVehContrib="0" flow="0.00" occupancy="92.66" speed="-1.00" length="-1.00" nVehEntered="1"/>
    <interval begin="120.00" end="150.00" id="o2" nVehContrib="0" flow="0.00" occupancy="70.39" speed="-1.00" length="-1.00" nVehEntered="1"/>
    <interval begin="120.00" end="150.00" id="o3" nVehContrib="0" flow="0.00" occupancy="93.05" speed="-1.00" length="-1.00" nVehEntered="1"/>
    <interval begin="150.00" end="180.00" id="i0" nVehContrib="5" flow="600.00" occupancy="5.08" speed="16.41" length="5.00" nVehEntered="5"/>
    <interval begin="150.00" end="180.00" id="i1" nVehContrib="4" flow="480.00" occupancy="4.88" speed="19.13" length="7.00" nVehEntered="4"/>
    <interval begin="150.00" end="180.00" id="i2" nVehContrib="4" flow="480.00" occupancy="4.03" speed="16.54" length="5.00" nVehEntered="4"/>
    <interval begin="150.00" end="180.00" id="i3" nVehContrib="3" flow="360.00" occupancy="3.05" speed="19.12" length="7.00" nVehEntered="2"/>
    <interval begin="150.00" end="180.00" id="o0" nVehContrib="1" flow="120.00" occupancy="61.35" speed="0.40" length="5.00" nVehEntered="2"/>
    <interval begin="150.00" end="180.00" id="o1" nVehContrib="2" flow="240.00" occupancy="81.53" speed="0.44" length="7.00" nVehEntered="2"/>
    <interval begin="150.00" end="180.00" id="o2" nVehContrib="2" flow="240.00" occupancy="77.27" speed="0.30" length="5.00" nVehEntered="2"/>
    <interval begin="150.00" end="180.00" id="o3" nVehContrib="2" flow="240.00" occupancy="81.01" speed="0.43" length="7.00" nVehEntered="2"/>
    <interval begin="180.00" end="210.00" id="i0" nVehContrib="4" flow="480.00" occupancy="4.68" speed="16.40" length="5.00" nVehEntered="5"/>
    <interval begin="180.00" end="210.00" id="i1" nVehContrib="2" flow="240.00" occupancy="2.43" speed="19.24" length="7.00" nVehEntered="2"/>
    <interval begin="180.00" end="210.00" id="i2" nVehContrib="2" flow="240.00" occupancy="2.04" speed="16.34" length="5.00" nVehEntered="2"/>
    <interval begin="180.00" end="210.00" id="i3" nVehContrib="3" flow="360.00" occupancy="3.71" speed="18.89" length="7.00" nVehEntered="3"/>
    <interval begin="180.00" end="210.00" id="o0" nVehContrib="2" flow="240.00" occupancy="52.95" speed="1.44" length="5.00" nVehEntered="1"/>
    <interval begin="180.00" end="210.00" id="o1" nVehContrib="3" flow="360.00" occupancy="76.50" speed="1.40" length="7.00" nVehEntered="2"/>
    <interval begin="180.00" end="210.00" id="o2" nVehContrib="1" flow="120.00" occupancy="89.88" speed="0.25" length="5.00" nVehEntered="1"/>
    <interval begin="180.00" end="210.00" id="o3" nVehContrib="3" flow="360.00" occupancy="75.07" speed="1.44" length="7.00" nVehEntered="3"/>
    <interval begin="210.00" end="240.00" id="i0" nVehContrib="6" flow="720.00" occupancy="5.48" speed="16.41" length="5.00" nVehEntered="5"/>
    <interval begin="210.00" end="240.00" id="i1" nVehContrib="1" flow="120.00" occupancy="1.22" speed="19.17" length="7.00" nVehEntered="1"/>
    <interval begin="210.00" end="240.00" id="i2" nVehContrib="2" flow="240.00" occupancy="2.01" speed="16.58" length="5.00" nVehEntered="2"/>
    <interval begin="210.00" end="240.00" id="i3" nVehContrib="2" flow="240.00" occupancy="2.41" speed="19.35" length="7.00" nVehEntered="2"/>
    <interval begin="210.00" end="240.00" id="o0" nVehContrib="2" flow="240.00" occupancy="60.50" speed="1.56" length="5.00" nVehEntered="3"/>
    <interval begin="210.00" end="240.00" id="o1" nVehContrib="1" flow="120.00" occupancy="90.41" speed="0.54" length="7.00" nVehEntered="2"/>
    <interval begin="210.00" end="240.00" id="o2" nVehContrib="3" flow="360.00" occupancy="61.91" speed="1.08" length="5.00" nVehEntered="2"/>
    <interval begin="210.00" end="240.00" id="o3" nVehContrib="1" flow="120.00" occupancy="90.99" speed="0.52" length="7.00" nVehEntered="1"/>
    <interval begin="240.00" end="270.00" id="i0" nVehContrib="5" flow="600.00" occupancy="5.05" speed="16.49" length="5.00" nVehEntered="5"/>
    <interval begin="240.00" end="270.00" id="i1" nVehContrib="3" flow="360.00" occupancy="3.70" speed="18.93" length="7.00" nVehEntered="3"/>
    <interval begin="240.00" end="270.00" id="i2" nVehContrib="5" flow="600.00" occupancy="5.06" speed="16.46" length="5.00" nVehEntered="5"/>
    <interval begin="240.00" end="270.00" id="i3" nVehContrib="2" flow="240.00" occupancy="2.47" speed="18.92" length="7.00" nVehEntered="2"/>
    <interval begin="240.00" end="270.00" id="o0" nVehContrib="1" flow="120.00" occupancy="33.21" speed="0.39" length="5.00" nVehEntered="0"/>
    <interval begin="240.00" end="270.00" id="o1" nVehContrib="2" flow="240.00" occupancy="82.78" speed="0.49" length="7.00" nVehEntered="2"/>
    <interval begin="240.00" end="270.00" id="o2" nVehContrib="1" flow="120.00" occupancy="52.25" speed="0.32" length="5.00" nVehEntered="1"/>
    <interval begin="240.00" end="270.00" id="o3" nVehContrib="2" flow="240.00" occupancy="82.46" speed="0.49" length="7.00" nVehEntered="2"/>
    <interval begin="270.00" end="300.00" id="i0" nVehContrib="5" flow="600.00" occupancy="7.75" speed="12.27" length="5.00" nVehEntered="5"/>
    <interval begin="270.00" end="300.00" id="i1" nVehContrib="2" flow="240.00" occupancy="2.44" speed="19.09" length="7.00" nVehEntered="2"/>
    <interval begin="270.00" end="300.00" id="i2" nVehContrib="4" flow="480.00" occupancy="4.06" speed="16.44" length="5.00" nVehEntered="4"/>
    <interval begin="270.00" end="300.00" id="i3" nVehContrib="3" flow="360.00" occupancy="3.70" speed="18.93" length="7.00" nVehEntered="3"/>
    <interval begin="270.00" end="300.00" id="o0" nVehContrib="0" flow="0.00" occupancy="98.37" speed="-1.00" length="-1.00" nVehEntered="1"/>
    <interval begin="270.00" end="300.00" id="o1" nVehContrib="3" flow="360.00" occupancy="76.88" speed="1.31" length="7.00" nVehEntered="2"/>
    <interval begin="270.00" end="300.00" id="o2" nVehContrib="0" flow="0.00" occupancy="41.12" speed="-1.00" length="-1.00" nVehEntered="1"/>
    <interval begin="270.00" end="300.00" id="o3" nVehContrib="3" flow="360.00" occupancy="76.44" speed="1.32" length="7.00" nVehEntered="2"/>
    <interval begin="300.00" end="330.00" id="i0" nVehContrib="1" flow="120.00" occupancy="4.80" speed="3.47" length="5.00" nVehEntered="1"/>
    <interval begin="300.00" end="330.00" id="i1" nVehContrib="1" flow="120.00" occupancy="1.24" speed="18.83" length="7.00" nVehEntered="1"/>
    <interval begin="300.00" end="330.00" id="i2" nVehContrib="2" flow="240.00" occupancy="2.05" speed="16.28" length="5.00" nVehEntered="2"/>
    <interval begin="300.00" end="330.00" id="i3" nVehContrib="4" flow="480.00" occupancy="4.91" speed="19.02" length="7.00" nVehEntered="4"/>
    <interval begin="300.00" end="330.00" id="o0" nVehContrib="2" flow="240.00" occupancy="72.55" speed="0.22" length="5.00" nVehEntered="1"/>
    <interval begin="300.00" end="330.00" id="o1" nVehContrib="1" flow="120.00" occupancy="88.99" speed="0.47" length="7.00" nVehEntered="2"/>
    <interval begin="300.00" end="330.00" id="o2" nVehContrib="2" flow="240.00" occupancy="73.27" speed="0.29" length="5.00" nVehEntered="1"/>
    <interval begin="300.00" end="330.00" id="o3" nVehContrib="1" flow="120.00" occupancy="89.22" speed="0.47" length="7.00" nVehEntered="2"/>
    <interval begin="330.00" end="360.00" id="i0" nVehContrib="1" flow="120.00" occupancy="20.00" speed="0.83" length="5.00" nVehEntered="1"/>
    <interval begin="330.00" end="360.00" id="i1" nVehContrib="2" flow="240.00" occupancy="2.48" speed="18.79" length="7.00" nVehEntered="2"/>
    <interval begin="330.00" end="360.00" id="i2" nVehContrib="1" flow="120.00" occupancy="1.12" speed="14.84" length="5.00" nVehEntered="1"/>
    <interval begin="330.00" end="360.00" id="i3" nVehContrib="1" flow="120.00" occupancy="1.23" speed="18.98" length="7.00" nVehEntered="1"/>
    <interval begin="330.00" end="360.00" id="o0" nVehContrib="0" flow="0.00" occupancy="51.12" speed="-1.00" length="-1.00" nVehEntered="1"/>
    <interval begin="330.00" end="360.00" id="o1" nVehContrib="2" flow="240.00" occupancy="82.52" speed="0.47" length="7.00" nVehEntered="2"/>
    <interval begin="330.00" end="360.00" id="o2" nVehContrib="0" flow="0.00" occupancy="50.08" speed="-1.00" length="-1.00" nVehEntered="1"/>
    <interval begin="330.00" end="360.00" id="o3" nVehContrib="2" flow="240.00" occupancy="82.03" speed="0.48" length="7.00" nVehEntered="2"/>
    <interval begin="360.00" end="390.00" id="i0" nVehContrib="1" flow="120.00" occupancy="45.26" speed="0.37" length="5.00" nVehEntered="1"/>
    <interval begin="360.00" end="390.00" id="i1" nVehContrib="1" flow="120.00" occupancy="1.23" speed="19.01" length="7.00" nVehEntered="1"/>
    <interval begin="360.00" end="390.00" id="i2" nVehContrib="2" flow="240.00" occupancy="2.43" speed="13.71" length="5.00" nVehEntered="2"/>
    <interval begin="360.00" end="390.00" id="i3" nVehContrib="4" flow="480.00" occupancy="5.13" speed="18.24" length="7.00" nVehEntered="4"/>
    <interval begin="360.00" end="390.00" id="o0" nVehContrib="2" flow="240.00" occupancy="79.57" speed="0.31" length="5.00" nVehEntered="2"/>
    <interval begin="360.00" end="390.00" id="o1" nVehContrib="1" flow="120.00" occupancy="96.85" speed="0.20" length="7.00" nVehEntered="0"/>
    <interval begin="360.00" end="390.00" id="o2" nVehContrib="2" flow="240.00" occupancy="79.17" speed="0.32" length="5.00" nVehEntered="2"/>
    <interval begin="360.00" end="390.00" id="o3" nVehContrib="0" flow="0.00" occupancy="100.00" speed="-1.00" length="-1.00" nVehEntered="0"/>
    <interval begin="390.00" end="420.00" id="i0" nVehContrib="2" flow="240.00" occupancy="36.22" speed="0.92" length="5.00" nVehEntered="2"/>
    <interval begin="390.00" end="420.00" id="i1" nVehContrib="1" flow="120.00" occupancy="1.26" speed="18.49" length="7.00" nVehEntered="1"/>
    <interval begin="390.00" end="420.00" id="i2" nVehContrib="2" flow="240.00" occupancy="2.98" speed="11.24" length="5.00" nVehEntered="2"/>
    <interval begin="390.00" end="420.00" id="i3" nVehContrib="2" flow="240.00" occupancy="46.88" speed="11.09" length="7.00" nVehEntered="3"/>
    <interval begin="390.00" end="420.00" id="o0" nVehContrib="2" flow="240.00" occupancy="80.81" speed="0.36" length="5.00" nVehEntered="2"/>
    <interval begin="390.00" end="420.00" id="o1" nVehContrib="1" flow="120.00" occupancy="84.83" speed="0.55" length="7.00" nVehEntered="2"/>
    <interval begin="390.00" end="420.00" id="o2" nVehContrib="2" flow="240.00" occupancy="79.38" speed="0.36" length="5.00" nVehEntered="2"/>
    <interval begin="390.00" end="420.00" id="o3" nVehContrib="1" flow="120.00" occupancy="91.25" speed="0.14" length="7.00" nVehEntered="1"/>
    <interval begin="420.00" end="450.00" id="i0" nVehContrib="1" flow="120.00" occupancy="30.31" speed="1.09" length="5.00" nVehEntered="2"/>
    <interval begin="420.00" end="450.00" id="i1" nVehContrib="3" flow="360.00" occupancy="3.67" speed="19.09" length="7.00" nVehEntered="3"/>
    <interval begin="420.00" end="450.00" id="i2" nVehContrib="2" flow="240.00" occupancy="2.82" speed="11.99" length="5.00" nVehEntered="2"/>
    <interval begin="420.00" end="450.00" id="i3" nVehContrib="1" flow="120.00" occupancy="66.64" speed="0.36" length="7.00" nVehEntered="1"/>
    <interval begin="420.00" end="450.00" id="o0" nVehContrib="2" flow="240.00" occupancy="83.53" speed="1.37" length="5.00" nVehEntered="2"/>
    <interval begin="420.00" end="450.00" id="o1" nVehContrib="1" flow="120.00" occupancy="90.00" speed="0.34" length="7.00" nVehEntered="1"/>
    <interval begin="420.00" end="450.00" id="o2" nVehContrib="2" flow="240.00" occupancy="84.59" speed="1.42" length="5.00" nVehEntered="2"/>
    <interval begin="420.00" end="450.00" id="o3" nVehContrib="1" flow="120.00" occupancy="91.12" speed="0.33" length="7.00" nVehEntered="1"/>
    <interval begin="450.00" end="480.00" id="i0" nVehContrib="3" flow="360.00" occupancy="23.87" speed="1.38" length="5.00" nVehEntered="2"/>
    <interval begin="450.00" end="480.00" id="i1" nVehContrib="3" flow="360.00" occupancy="3.67" speed="19.08" length="7.00" nVehEntered="3"/>
    <interval begin="450.00" end="480.00" id="i2" nVehContrib="2" flow="240.00" occupancy="2.81" speed="12.07" length="5.00" nVehEntered="2"/>
    <interval begin="450.00" end="480.00" id="i3" nVehContrib="2" flow="240.00" occupancy="82.56" speed="0.41" length="7.00" nVehEntered="2"/>
    <interval begin="450.00" end="480.00" id="o0" nVehContrib="2" flow="240.00" occupancy="79.76" speed="0.33" length="5.00" nVehEntered="2"/>
    <interval begin="450.00" end="480.00" id="o1" nVehContrib="2" flow="240.00" occupancy="83.50" speed="0.44" length="7.00" nVehEntered="2"/>
    <interval begin="450.00" end="480.00" id="o2" nVehContrib="2" flow="240.00" occupancy="81.86" speed="0.33" length="5.00" nVehEntered="2"/>
    <interval begin="450.00" end="480.00" id="o3" nVehContrib="2" flow="240.00" occupancy="82.93" speed="0.42" length="7.00" nVehEntered="2"/>
    <interval begin="480.00" end="510.00" id="i0" nVehContrib="1" flow="120.00" occupancy="24.99" speed="0.90" length="5.00" nVehEntered="2"/>
    <interval begin="480.00" end="510.00" id="i1" nVehContrib="0" flow="0.00" occupancy="0.00" speed="-1.00" length="-1.00" nVehEntered="0"/>
    <interval begin="480.00" end="510.00" id="i2" nVehContrib="3" flow="360.00" occupancy="16.01" speed="7.63" length="5.00" nVehEntered="4"/>
    <interval begin="480.00" end="510.00" id="i3" nVehContrib="1" flow="120.00" occupancy="90.35" speed="0.49" length="7.00" nVehEntered="1"/>
    <interval begin="480.00" end="510.00" id="o0" nVehContrib="2" flow="240.00" occupancy="90.18" speed="0.36" length="5.00" nVehEntered="1"/>
    <interval begin="480.00" end="510.00" id="o1" nVehContrib="2" flow="240.00" occupancy="81.31" speed="0.44" length="7.00" nVehEntered="2"/>
    <interval begin="480.00" end="510.00" id="o2" nVehContrib="1" flow="120.00" occupancy="90.23" speed="0.32" length="5.00" nVehEntered="1"/>
    <interval begin="480.00" end="510.00" id="o3" nVehContrib="2" flow="240.00" occupancy="83.36" speed="0.45" length="7.00" nVehEntered="2"/>
    <interval begin="510.00" end="540.00" id="i0" nVehContrib="2" flow="240.00" occupancy="18.72" speed="1.33" length="5.00" nVehEntered="1"/>
    <interval begin="510.00" end="540.00" id="i1" nVehContrib="3" flow="360.00" occupancy="3.63" speed="19.27" length="7.00" nVehEntered="3"/>
    <interval begin="510.00" end="540.00" id="i2" nVehContrib="2" flow="240.00" occupancy="23.20" speed="1.07" length="5.00" nVehEntered="1"/>
    <interval begin="510.00" end="540.00" id="i3" nVehContrib="2" flow="240.00" occupancy="81.36" speed="0.44" length="7.00" nVehEntered="2"/>
    <interval begin="510.00" end="540.00" id="o0" nVehContrib="1" flow="120.00" occupancy="81.61" speed="0.32" length="5.00" nVehEntered="2"/>
    <interval begin="510.00" end="540.00" id="o1" nVehContrib="1" flow="120.00" occupancy="94.21" speed="0.22" length="7.00" nVehEntered="0"/>
    <interval begin="510.00" end="540.00" id="o2" nVehContrib="2" flow="240.00" occupancy="78.41" speed="0.36" length="5.00" nVehEntered="2"/>
    <interval begin="510.00" end="540.00" id="o3" nVehContrib="1" flow="120.00" occupancy="94.29" speed="0.22" length="7.00" nVehEntered="0"/>
    <interval begin="540.00" end="570.00" id="i0" nVehContrib="2" flow="240.00" occupancy="36.20" speed="0.93" length="5.00" nVehEntered="2"/>
    <interval begin="540.00" end="570.00" id="i1" nVehContrib="0" flow="0.00" occupancy="0.00" speed="-1.00" length="-1.00" nVehEntered="0"/>
    <interval begin="540.00" end="570.00" id="i2" nVehContrib="2" flow="240.00" occupancy="34.34" speed="0.97" length="5.00" nVehEntered="2"/>
    <interval begin="540.00" end="570.00" id="i3" nVehContrib="1" flow="120.00" occupancy="90.22" speed="0.23" length="7.00" nVehEntered="1"/>
    <interval begin="540.00" end="570.00" id="o0" nVehContrib="1" flow="120.00" occupancy="90.83" speed="0.38" length="5.00" nVehEntered="1"/>
    <interval begin="540.00" end="570.00" id="o1" nVehContrib="1" flow="120.00" occupancy="87.82" speed="0.27" length="7.00" nVehEntered="1"/>
    <interval begin="540.00" end="570.00" id="o2" nVehContrib="1" flow="120.00" occupancy="90.70" speed="0.39" length="5.00" nVehEntered="1"/>
    <interval begin="540.00" end="570.00" id="o3" nVehContrib="1" flow="120.00" occupancy="86.26" speed="0.27" length="7.00" nVehEntered="2"/>
    <interval begin="570.00" end="600.00" id="i0" nVehContrib="1" flow="120.00" occupancy="13.90" speed="1.20" length="5.00" nVehEntered="1"/>
    <interval begin="570.00" end="600.00" id="i1" nVehContrib="4" flow="480.00" occupancy="5.53" speed="19.09" length="7.00" nVehEntered="5"/>
    <interval begin="570.00" end="600.00" id="i2" nVehContrib="1" flow="120.00" occupancy="19.23" speed="0.87" length="5.00" nVehEntered="1"/>
    <interval begin="570.00" end="600.00" id="i3" nVehContrib="1" flow="120.00" occupancy="90.68" speed="0.28" length="7.00" nVehEntered="1"/>
    <interval begin="570.00" end="600.00" id="o0" nVehContrib="2" flow="240.00" occupancy="78.92" speed="0.28" length="5.00" nVehEntered="2"/>
    <interval begin="570.00" end="600.00" id="o1" nVehContrib="1" flow="120.00" occupancy="89.44" speed="0.58" length="7.00" nVehEntered="2"/>
    <interval begin="570.00" end="600.00" id="o2" nVehContrib="2" flow="240.00" occupancy="76.99" speed="0.29" length="5.00" nVehEntered="2"/>
    <interval begin="570.00" end="600.00" id="o3" nVehContrib="1" flow="120.00" occupancy="91.22" speed="0.56" length="7.00" nVehEntered="1"/>
    <interval begin="600.00" end="630.00" id="i0" nVehContrib="2" flow="240.00" occupancy="38.63" speed="0.88" length="5.00" nVehEntered="2"/>
    <interval begin="600.00" end="630.00" id="i1" nVehContrib="1" flow="120.00" occupancy="0.66" speed="17.92" length="7.00" nVehEntered="0"/>
    <interval begin="600.00" end="630.00" id="i2" nVehContrib="2" flow="240.00" occupancy="36.76" speed="0.91" length="5.00" nVehEntered="2"/>
    <interval begin="600.00" end="630.00" id="i3" nVehContrib="1" flow="120.00" occupancy="92.07" speed="0.54" length="7.00" nVehEntered="1"/>
    <interval begin="600.00" end="630.00" id="o0" nVehContrib="2" flow="240.00" occupancy="79.30" speed="0.35" length="5.00" nVehEntered="2"/>
    <interval begin="600.00" end="630.00" id="o1" nVehContrib="1" flow="120.00" occupancy="90.95" speed="0.21" length="7.00" nVehEntered="1"/>
    <interval begin="600.00" end="630.00" id="o2" nVehContrib="2" flow="240.00" occupancy="80.23" speed="0.36" length="5.00" nVehEntered="2"/>
    <interval begin="600.00" end="630.00" id="o3" nVehContrib="1" flow="120.00" occupancy="90.81" speed="0.21" length="7.00" nVehEntered="1"/>
    <interval begin="630.00" end="660.00" id="i0" nVehContrib="1" flow="120.00" occupancy="31.16" speed="0.77" length="5.00" nVehEntered="2"/>
    <interval begin="630.00" end="660.00" id="i1" nVehContrib="2" flow="240.00" occupancy="2.44" speed="19.14" length="7.00" nVehEntered="2"/>
    <interval begin="630.00" end="660.00" id="i2" nVehContrib="2" flow="240.00" occupancy="34.81" speed="0.97" length="5.00" nVehEntered="2"/>
    <interval begin="630.00" end="660.00" id="i3" nVehContrib="2" flow="240.00" occupancy="80.02" speed="0.39" length="7.00" nVehEntered="2"/>
    <interval begin="630.00" end="660.00" id="o0" nVehContrib="2" flow="240.00" occupancy="86.71" speed="0.35" length="5.00" nVehEntered="1"/>
    <interval begin="630.00" end="660.00" id="o1" nVehContrib="2" flow="240.00" occupancy="81.51" speed="0.50" length="7.00" nVehEntered="2"/>
    <interval begin="630.00" end="660.00" id="o2" nVehContrib="2" flow="240.00" occupancy="86.70" speed="0.35" length="5.00" nVehEntered="1"/>
    <interval begin="630.00" end="660.00" id="o3" nVehContrib="2" flow="240.00" occupancy="81.60" speed="0.49" length="7.00" nVehEntered="2"/>
    <interval begin="660.00" end="690.00" id="i0" nVehContrib="2" flow="240.00" occupancy="21.52" speed="1.11" length="5.00" nVehEntered="1"/>
    <interval begin="660.00" end="690.00" id="i1" nVehContrib="4" flow="480.00" occupancy="5.98" speed="15.83" length="7.00" nVehEntered="4"/>
    <interval begin="660.00" end="690.00" id="i2" nVehContrib="1" flow="120.00" occupancy="17.76" speed="0.95" length="5.00" nVehEntered="2"/>
    <interval begin="660.00" end="690.00" id="i3" nVehContrib="1" flow="120.00" occupancy="91.02" speed="0.43" length="7.00" nVehEntered="1"/>
    <interval begin="660.00" end="690.00" id="o0" nVehContrib="2" flow="240.00" occupancy="77.34" speed="1.43" length="5.00" nVehEntered="3"/>
    <interval begin="660.00" end="690.00" id="o1" nVehContrib="0" flow="0.00" occupancy="100.00" speed="-1.00" length="-1.00" nVehEntered="0"/>
    <interval begin="660.00" end="690.00" id="o2" nVehContrib="2" flow="240.00" occupancy="76.77" speed="1.44" length="5.00" nVehEntered="3"/>
    <interval begin="660.00" end="690.00" id="o3" nVehContrib="0" flow="0.00" occupancy="100.00" speed="-1.00" length="-1.00" nVehEntered="0"/>
    <interval begin="690.00" end="720.00" id="i0" nVehContrib="3" flow="360.00" occupancy="37.15" speed="1.48" length="5.00" nVehEntered="3"/>
    <interval begin="690.00" end="720.00" id="i1" nVehContrib="2" flow="240.00" occupancy="34.19" speed="5.27" length="7.00" nVehEntered="3"/>
    <interval begin="690.00" end="720.00" id="i2" nVehContrib="3" flow="360.00" occupancy="31.96" speed="1.69" length="5.00" nVehEntered="2"/>
    <interval begin="690.00" end="720.00" id="i3" nVehContrib="1" flow="120.00" occupancy="90.36" speed="0.19" length="7.00" nVehEntered="1"/>
    <interval begin="690.00" end="720.00" id="o0" nVehContrib="1" flow="120.00" occupancy="88.73" speed="0.16" length="5.00" nVehEntered="1"/>
    <interval begin="690.00" end="720.00" id="o1" nVehContrib="2" flow="240.00" occupancy="82.34" speed="0.39" length="7.00" nVehEntered="2"/>
    <interval begin="690.00" end="720.00" id="o2" nVehContrib="1" flow="120.00" occupancy="88.71" speed="0.16" length="5.00" nVehEntered="1"/>
    <interval begin="690.00" end="720.00" id="o3" nVehContrib="2" flow="240.00" occupancy="81.99" speed="0.39" length="7.00" nVehEntered="2"/>
    <interval begin="720.00" end="750.00" id="i0" nVehContrib="0" flow="0.00" occupancy="16.87" speed="-1.00" length="-1.00" nVehEntered="1"/>
    <interval begin="720.00" end="750.00" id="i1" nVehContrib="1" flow="120.00" occupancy="91.78" speed="0.59" length="7.00" nVehEntered="1"/>
    <interval begin="720.00" end="750.00" id="i2" nVehContrib="0" flow="0.00" occupancy="13.27" speed="-1.00" length="-1.00" nVehEntered="1"/>
    <interval begin="720.00" end="750.00" id="i3" nVehContrib="1" flow="120.00" occupancy="89.57" speed="0.62" length="7.00" nVehEntered="1"/>
    <interval begin="720.00" end="750.00" id="o0" nVehContrib="2" flow="240.00" occupancy="84.54" speed="0.36" length="5.00" nVehEntered="1"/>
    <interval begin="720.00" end="750.00" id="o1" nVehContrib="1" flow="120.00" occupancy="90.79" speed="0.23" length="7.00" nVehEntered="1"/>
    <interval begin="720.00" end="750.00" id="o2" nVehContrib="2" flow="240.00" occupancy="84.45" speed="0.37" length="5.00" nVehEntered="1"/>
    <interval begin="720.00" end="750.00" id="o3" nVehContrib="1" flow="120.00" occupancy="91.64" speed="0.23" length="7.00" nVehEntered="1"/>
    <interval begin="750.00" end="780.00" id="i0" nVehContrib="2" flow="240.00" occupancy="22.23" speed="0.91" length="5.00" nVehEntered="2"/>
    <interval begin="750.00" end="780.00" id="i1" nVehContrib="1" flow="120.00" occupancy="90.34" speed="0.23" length="7.00" nVehEntered="1"/>
    <interval begin="750.00" end="780.00" id="i2" nVehContrib="2" flow="240.00" occupancy="29.41" speed="0.87" length="5.00" nVehEntered="2"/>