<?xml version="1.0" encoding="UTF-8"?>

<!-- generated on Fri 08 Sep 2017 10:34:32 AM CEST by SUMO gui Version 0.30.0
<?xml version="1.0" encoding="UTF-8"?>

<configuration xmlns:xsi="http://www.w3.org/2001/XMLSchema-instance" xsi:noNamespaceSchemaLocation="http://sumo.dlr.de/xsd/sumoConfiguration.xsd">

    <input>
        <net-file value="data/cross.net.xml"/>
        <route-files value="data/cross.rou.xml"/>
        <additional-files value="data/cross1.det.xml"/>
    </input>

    <output>
        <tripinfo-output value="tripinfo.xml"/>
    </output>

    <time>
        <begin value="0"/>
    </time>

    <report>
        <verbose value="true"/>
        <no-step-log value="true"/>
    </report>

    <traci_server>
        <remote-port value="58073"/>
    </traci_server>

    <gui_only>
        <gui-settings-file value="data/gui.settings.xml"/>
    </gui_only>

</configuration>
-->

<detector xmlns:xsi="http://www.w3.org/2001/XMLSchema-instance" xsi:noNamespaceSchemaLocation="http://sumo.dlr.de/xsd/det_e1_file.xsd">
    <interval begin="0.00" end="100.00" id="l1" nVehContrib="2" flow="72.00" occupancy="2.52" speed="5.59" length="7.00" nVehEntered="2"/>
    <interval begin="100.00" end="200.00" id="l1" nVehContrib="5" flow="180.00" occupancy="6.64" speed="5.29" length="7.00" nVehEntered="5"/>
    <interval begin="200.00" end="300.00" id="l1" nVehContrib="5" flow="180.00" occupancy="6.47" speed="5.42" length="7.00" nVehEntered="5"/>
    <interval begin="300.00" end="400.00" id="l1" nVehContrib="5" flow="180.00" occupancy="6.39" speed="5.52" length="7.00" nVehEntered="5"/>
    <interval begin="400.00" end="500.00" id="l1" nVehContrib="4" flow="144.00" occupancy="5.23" speed="5.36" length="7.00" nVehEntered="4"/>
    <interval begin="500.00" end="600.00" id="l1" nVehContrib="4" flow="144.00" occupancy="5.33" speed="5.26" length="7.00" nVehEntered="4"/>
    <interval begin="600.00" end="700.00" id="l1" nVehContrib="6" flow="216.00" occupancy="7.34" speed="5.83" length="7.00" nVehEntered="6"/>
    <interval begin="700.00" end="800.00" id="l1" nVehContrib="4" flow="144.00" occupancy="5.24" speed="5.35" length="7.00" nVehEntered="4"/>
    <interval begin="800.00" end="900.00" id="l1" nVehContrib="8" flow="288.00" occupancy="9.13" speed="6.35" length="7.00" nVehEntered="8"/>
    <interval begin="900.00" end="1000.00" id="l1" nVehContrib="4" flow="144.00" occupancy="5.30" speed="5.28" length="7.00" nVehEntered="4"/>
    <interval begin="1000.00" end="1100.00" id="l1" nVehContrib="3" flow="108.00" occupancy="3.96" speed="5.30" length="7.00" nVehEntered="3"/>
    <interval begin="1100.00" end="1200.00" id="l1" nVehContrib="7" flow="252.00" occupancy="8.75" speed="5.66" length="7.00" nVehEntered="7"/>
    <interval begin="1200.00" end="1300.00" id="l1" nVehContrib="4" flow="144.00" occupancy="4.93" speed="5.70" length="7.00" nVehEntered="4"/>
    <interval begin="1300.00" end="1400.00" id="l1" nVehContrib="4" flow="144.00" occupancy="5.45" speed="5.15" length="7.00" nVehEntered="4"/>
    <interval begin="1400.00" end="1500.00" id="l1" nVehContrib="5" flow="180.00" occupancy="6.07" speed="5.88" length="7.00" nVehEntered="5"/>
    <interval begin="1500.00" end="1600.00" id="l1" nVehContrib="6" flow="216.00" occupancy="7.79" speed="5.42" length="7.00" nVehEntered="6"/>
    <interval begin="1600.00" end="1700.00" id="l1" nVehContrib="4" flow="144.00" occupancy="5.00" speed="5.64" length="7.00" nVehEntered="4"/>
    <interval begin="1700.00" end="1800.00" id="l1" nVehContrib="5" flow="180.00" occupancy="6.33" speed="5.56" length="7.00" nVehEntered="5"/>
    <interval begin="1800.00" end="1900.00" id="l1" nVehContrib="4" flow="144.00" occupancy="5.26" speed="5.33" length="7.00" nVehEntered="4"/>
    <interval begin="1900.00" end="2000.00" id="l1" nVehContrib="5" flow="180.00" occupancy="7.05" speed="5.32" length="7.00" nVehEntered="6"/>
    <interval begin="2000.00" end="2100.00" id="l1" nVehContrib="8" flow="288.00" occupancy="8.96" speed="6.03" length="7.00" nVehEntered="7"/>
    <interval begin="2100.00" end="2200.00" id="l1" nVehContrib="5" flow="180.00" occupancy="6.58" speed="5.32" length="7.00" nVehEntered="5"/>
    <interval begin="2200.00" end="2300.00" id="l1" nVehContrib="4" flow="144.00" occupancy="5.23" speed="5.35" length="7.00" nVehEntered="4"/>
    <interval begin="2300.00" end="2400.00" id="l1" nVehContrib="5" flow="180.00" occupancy="6.41" speed="5.46" length="7.00" nVehEntered="5"/>
    <interval begin="2400.00" end="2500.00" id="l1" nVehContrib="4" flow="144.00" occupancy="5.16" speed="5.43" length="7.00" nVehEntered="4"/>
    <interval begin="2500.00" end="2600.00" id="l1" nVehContrib="4" flow="144.00" occupancy="5.36" speed="5.23" length="7.00" nVehEntered="4"/>
    <interval begin="2600.00" end="2700.00" id="l1" nVehContrib="5" flow="180.00" occupancy="6.43" speed="5.46" length="7.00" nVehEntered="5"/>
    <interval begin="2700.00" end="2800.00" id="l1" nVehContrib="4" flow="144.00" occupancy="4.93" speed="5.72" length="7.00" nVehEntered="4"/>
    <interval begin="2800.00" end="2900.00" id="l1" nVehContrib="4" flow="144.00" occupancy="5.39" speed="5.20" length="7.00" nVehEntered="4"/>
    <interval begin="2900.00" end="3000.00" id="l1" nVehContrib="3" flow="108.00" occupancy="3.90" speed="5.39" length="7.00" nVehEntered="3"/>
    <interval begin="3000.00" end="3100.00" id="l1" nVehContrib="7" flow="252.00" occupancy="8.44" speed="5.90" length="7.00" nVehEntered="7"/>
    <interval begin="3100.00" end="3200.00" id="l1" nVehContrib="2" flow="72.00" occupancy="2.56" speed="5.47" length="7.00" nVehEntered="2"/>
    <interval begin="3200.00" end="3300.00" id="l1" nVehContrib="6" flow="216.00" occupancy="7.30" speed="5.81" length="7.00" nVehEntered="6"/>
    <interval begin="3300.00" end="3400.00" id="l1" nVehContrib="3" flow="108.00" occupancy="3.78" speed="5.56" length="7.00" nVehEntered="3"/>
    <interval begin="3400.00" end="3500.00" id="l1" nVehContrib="4" flow="144.00" occupancy="5.32" speed="5.27" length="7.00" nVehEntered="4"/>
    <interval begin="3500.00" end="3600.00" id="l1" nVehContrib="9" flow="324.00" occupancy="10.69" speed="6.04" length="7.00" nVehEntered="9"/>
    <interval begin="3600.00" end="3700.00" id="l1" nVehContrib="5" flow="180.00" occupancy="6.58" speed="5.32" length="7.00" nVehEntered="5"/>
    <interval begin="3700.00" end="3800.00" id="l1" nVehContrib="5" flow="180.00" occupancy="6.65" speed="5.48" length="7.00" nVehEntered="6"/>
    <interval begin="3800.00" end="3900.00" id="l1" nVehContrib="7" flow="252.00" occupancy="8.54" speed="5.58" length="7.00" nVehEntered="6"/>
    <interval begin="3900.00" end="4000.00" id="l1" nVehContrib="5" flow="180.00" occupancy="6.52" speed="5.37" length="7.00" nVehEntered="5"/>
    <interval begin="4000.00" end="4100.00" id="l1" nVehContrib="11" flow="396.00" occupancy="11.90" speed="6.66" length="7.00" nVehEntered="11"/>
    <interval begin="4100.00" end="4200.00" id="l1" nVehContrib="4" flow="144.00" occupancy="5.09" speed="5.52" length="7.00" nVehEntered="4"/>
    <interval begin="4200.00" end="4300.00" id="l1" nVehContrib="5" flow="180.00" occupancy="6.40" speed="5.49" length="7.00" nVehEntered="5"/>
    <interval begin="4300.00" end="4400.00" id="l1" nVehContrib="4" flow="144.00" occupancy="5.33" speed="5.26" length="7.00" nVehEntered="4"/>
    <interval begin="4400.00" end="4500.00" id="l1" nVehContrib="5" flow="180.00" occupancy="6.41" speed="5.47" length="7.00" nVehEntered="5"/>
    <interval begin="4500.00" end="4600.00" id="l1" nVehContrib="3" flow="108.00" occupancy="3.91" speed="5.39" length="7.00" nVehEntered="3"/>
    <interval begin="4600.00" end="4700.00" id="l1" nVehContrib="5" flow="180.00" occupancy="6.18" speed="5.69" length="7.00" nVehEntered="5"/>
    <interval begin="4700.00" end="4800.00" id="l1" nVehContrib="4" flow="144.00" occupancy="5.24" speed="5.34" length="7.00" nVehEntered="4"/>
    <interval begin="4800.00" end="4900.00" id="l1" nVehContrib="4" flow="144.00" occupancy="5.05" speed="5.58" length="7.00" nVehEntered="4"/>
    <interval begin="4900.00" end="5000.00" id="l1" nVehContrib="4" flow="144.00" occupancy="4.98" speed="5.64" length="7.00" nVehEntered="4"/>
    <interval begin="5000.00" end="5100.00" id="l1" nVehContrib="4" flow="144.00" occupancy="4.97" speed="5.66" length="7.00" nVehEntered="4"/>
    <interval begin="5100.00" end="5200.00" id="l1" nVehContrib="6" flow="216.00" occupancy="7.27" speed="5.85" length="7.00" nVehEntered="6"/>
    <interval begin="5200.00" end="5300.00" id="l1" nVehContrib="5" flow="180.00" occupancy="6.05" speed="5.80" length="7.00" nVehEntered="5"/>
    <interval begin="5300.00" end="5400.00" id="l1" nVehContrib="8" flow="288.00" occupancy="9.70" speed="5.83" length="7.00" nVehEntered="8"/>
    <interval begin="5400.00" end="5500.00" id="l1" nVehContrib="5" flow="180.00" occupancy="6.48" speed="5.40" length="7.00" nVehEntered="5"/>
    <interval begin="5500.00" end="5600.00" id="l1" nVehContrib="6" flow="216.00" occupancy="7.53" speed="5.64" length="7.00" nVehEntered="6"/>
    <interval begin="5600.00" end="5700.00" id="l1" nVehContrib="6" flow="216.00" occupancy="7.12" speed="6.00" length="7.00" nVehEntered="6"/>
    <interval begin="5700.00" end="5800.00" id="l1" nVehContrib="5" flow="180.00" occupancy="6.42" speed="5.49" length="7.00" nVehEntered="5"/>
    <interval begin="5800.00" end="5900.00" id="l1" nVehContrib="6" flow="216.00" occupancy="7.30" speed="5.88" length="7.00" nVehEntered="6"/>
    <interval begin="5900.00" end="6000.00" id="l1" nVehContrib="7" flow="252.00" occupancy="8.12" speed="6.11" length="7.00" nVehEntered="7"/>
    <interval begin="6000.00" end="6100.00" id="l1" nVehContrib="4" flow="144.00" occupancy="4.97" speed="5.67" length="7.00" nVehEntered="4"/>
    <interval begin="6100.00" end="6200.00" id="l1" nVehContrib="4" flow="144.00" occupancy="5.09" speed="5.54" length="7.00" nVehEntered="4"/>
    <interval begin="6200.00" end="6300.00" id="l1" nVehContrib="6" flow="216.00" occupancy="7.27" speed="5.83" length="7.00" nVehEntered="6"/>
    <interval begin="6300.00" end="6400.00" id="l1" nVehContrib="4" flow="144.00" occupancy="5.62" speed="5.58" length="7.00" nVehEntered="5"/>
    <interval begin="6400.00" end="6500.00" id="l1" nVehContrib="12" flow="432.00" occupancy="11.80" speed="7.26" length="7.00" nVehEntered="11"/>
    <interval begin="6500.00" end="6600.00" id="l1" nVehContrib="3" flow="108.00" occupancy="3.76" speed="5.61" length="7.00" nVehEntered="3"/>
    <interval begin="6600.00" end="6700.00" id="l1" nVehContrib="4" flow="144.00" occupancy="4.95" speed="5.70" length="7.00" nVehEntered="4"/>
    <interval begin="6700.00" end="6800.00" id="l1" nVehContrib="10" flow="360.00" occupancy="10.85" speed="6.63" length="7.00" nVehEntered="10"/>
    <interval begin="6800.00" end="6900.00" id="l1" nVehContrib="6" flow="216.00" occupancy="7.59" speed="5.60" length="7.00" nVehEntered="6"/>
    <interval begin="6900.00" end="7000.00" id="l1" nVehContrib="5" flow="180.00" occupancy="6.35" speed="5.53" length="7.00" nVehEntered="5"/>
    <interval begin="7000.00" end="7100.00" id="l1" nVehContrib="7" flow="252.00" occupancy="8.15" speed="6.12" length="7.00" nVehEntered="7"/>
    <interval begin="7100.00" end="7200.00" id="l1" nVehContrib="12" flow="432.00" occupancy="13.51" speed="6.36" length="7.00" nVehEntered="12"/>
    <interval begin="7200.00" end="7300.00" id="l1" nVehContrib="10" flow="360.00" occupancy="10.52" speed="6.94" length="7.00" nVehEntered="10"/>
    <interval begin="7300.00" end="7400.00" id="l1" nVehContrib="5" flow="180.00" occupancy="5.92" speed="6.01" length="7.00" nVehEntered="5"/>
    <interval begin="7400.00" end="7500.00" id="l1" nVehContrib="2" flow="72.00" occupancy="2.69" speed="5.21" length="7.00" nVehEntered="2"/>
    <interval begin="7500.00" end="7600.00" id="l1" nVehContrib="8" flow="288.00" occupancy="9.50" speed="6.53" length="7.00" nVehEntered="9"/>
    <interval begin="7600.00" end="7700.00" id="l1" nVehContrib="4" flow="144.00" occupancy="4.55" speed="5.37" length="7.00" nVehEntered="3"/>
    <interval begin="7700.00" end="7800.00" id="l1" nVehContrib="4" flow="144.00" occupancy="4.51" speed="6.29" length="7.00" nVehEntered="4"/>
    <interval begin="7800.00" end="7900.00" id="l1" nVehContrib="20" flow="720.00" occupancy="17.93" speed="8.31" length="7.00" nVehEntered="20"/>
    <interval begin="7900.00" end="8000.00" id="l1" nVehContrib="8" flow="288.00" occupancy="8.74" speed="6.62" length="7.00" nVehEntered="8"/>
    <interval begin="8000.00" end="8100.00" id="l1" nVehContrib="4" flow="144.00" occupancy="3.92" speed="7.72" length="7.00" nVehEntered="5"/>
    <interval begin="8100.00" end="8200.00" id="l1" nVehContrib="23" flow="828.00" occupancy="18.10" speed="9.26" length="7.00" nVehEntered="22"/>
    <interval begin="8200.00" end="8300.00" id="l1" nVehContrib="6" flow="216.00" occupancy="7.17" speed="6.01" length="7.00" nVehEntered="6"/>
    <interval begin="8300.00" end="8400.00" id="l1" nVehContrib="13" flow="468.00" occupancy="12.23" speed="7.78" length="7.00" nVehEntered="13"/>
    <interval begin="8400.00" end="8500.00" id="l1" nVehContrib="8" flow="288.00" occupancy="7.77" speed="7.58" length="7.00" nVehEntered="8"/>
    <interval begin="8500.00" end="8600.00" id="l1" nVehContrib="21" flow="756.00" occupancy="17.97" speed="8.80" length="7.00" nVehEntered="21"/>
    <interval begin="8600.00" end="8700.00" id="l1" nVehContrib="8" flow="288.00" occupancy="7.55" speed="7.67" length="7.00" nVehEntered="8"/>
    <interval begin="8700.00" end="8800.00" id="l1" nVehContrib="37" flow="1332.00" occupancy="26.07" speed="10.21" length="7.00" nVehEntered="37"/>
    <interval begin="8800.00" end="8900.00" id="l1" nVehContrib="18" flow="648.00" occupancy="16.43" speed="8.26" length="7.00" nVehEntered="18"/>
    <interval begin="8900.00" end="9000.00" id="l1" nVehContrib="13" flow="468.00" occupancy="12.29" speed="7.79" length="7.00" nVehEntered="13"/>
    <interval begin="9000.00" end="9100.00" id="l1" nVehContrib="10" flow="360.00" occupancy="7.24" speed="10.02" length="7.00" nVehEntered="10"/>
    <interval begin="9100.00" end="9200.00" id="l1" nVehContrib="9" flow="324.00" occupancy="8.79" speed="7.49" length="7.00" nVehEntered="9"/>
    <interval begin="9200.00" end="9300.00" id="l1" nVehContrib="29" flow="1044.00" occupancy="22.18" speed="9.61" length="7.00" nVehEntered="29"/>
    <interval begin="9300.00" end="9400.00" id="l1" nVehContrib="1" flow="36.00" occupancy="1.27" speed="5.51" length="7.00" nVehEntered="1"/>
    <interval begin="9400.00" end="9500.00" id="l1" nVehContrib="12" flow="432.00" occupancy="9.81" speed="9.04" length="7.00" nVehEntered="12"/>
    <interval begin="9500.00" end="9600.00" id="l1" nVehContrib="4" flow="144.00" occupancy="4.31" speed="6.65" length="7.00" nVehEntered="4"/>
    <interval begin="9600.00" end="9700.00" id="l1" nVehContrib="14" flow="504.00" occupancy="11.21" speed="9.22" length="7.00" nVehEntered="14"/>
    <interval begin="9700.00" end="9800.00" id="l1" nVehContrib="16" flow="576.00" occupancy="12.79" speed="9.24" length="7.00" nVehEntered="16"/>
    <interval begin="9800.00" end="9900.00" id="l1" nVehContrib="31" flow="1116.00" occupancy="22.68" speed="10.14" length="7.00" nVehEntered="32"/>
    <interval begin="9900.00" end="10000.00" id="l1" nVehContrib="31" flow="1116.00" occupancy="19.50" speed="10.85" length="7.00" nVehEntered="30"/>
    <interval begin="10000.00" end="10100.00" id="l1" nVehContrib="7" flow="252.00" occupancy="4.51" speed="10.86" length="7.00" nVehEntered="7"/>
    <interval begin="10100.00" end="10200.00" id="l1" nVehContrib="20" flow="720.00" occupancy="15.69" speed="9.46" length="7.00" nVehEntered="20"/>
    <interval begin="10200.00" end="10300.00" id="l1" nVehContrib="22" flow="792.00" occupancy="16.30" speed="9.93" length="7.00" nVehEntered="22"/>
    <interval begin="10300.00" end="10400.00" id="l1" nVehContrib="16" flow="576.00" occupancy="12.58" speed="9.39" length="7.00" nVehEntered="16"/>
    <interval begin="10400.00" end="10500.00" id="l1" nVehContrib="16" flow="576.00" occupancy="10.26" speed="10.92" length="7.00" nVehEntered="16"/>
    <interval begin="10500.00" end="10600.00" id="l1" nVehContrib="7" flow="252.00" occupancy="4.48" speed="10.95" length="7.00" nVehEntered="7"/>
    <interval begin="10600.00" end="10700.00" id="l1" nVehContrib="0" flow="0.00" occupancy="0.00" speed="-1.00" length="-1.00" nVehEntered="0"/>
    <interval begin="10700.00" end="10800.00" id="l1" nVehContrib="12" flow="432.00" occupancy="9.86" speed="8.97" length="7.00" nVehEntered="12"/>
    <interval begin="10800.00" end="10900.00" id="l1" nVehContrib="0" flow="0.00" occupancy="0.00" speed="-1.00" length="-1.00" nVehEntered="0"/>
    <interval begin="10900.00" end="11000.00" id="l1" nVehContrib="0" flow="0.00" occupancy="0.00" speed="-1.00" length="-1.00" nVehEntered="0"/>
    <interval begin="11000.00" end="11100.00" id="l1" nVehContrib="1" flow="36.00" occupancy="0.64" speed="10.93" length="7.00" nVehEntered="1"/>
    <interval begin="11100.00" end="11200.00" id="l1" nVehContrib="4" flow="144.00" occupancy="4.28" speed="6.70" length="7.00" nVehEntered="4"/>
    <interval begin="11200.00" end="11300.00" id="l1" nVehContrib="16" flow="576.00" occupancy="10.76" speed="10.45" length="7.00" nVehEntered="16"/>
    <interval begin="11300.00" end="11400.00" id="l1" nVehContrib="15" flow="540.00" occupancy="11.92" speed="9.23" length="7.00" nVehEntered="15"/>
    <interval begin="11400.00" end="11500.00" id="l1" nVehContrib="0" flow="0.00" occupancy="0.00" speed="-1.00" length="-1.00" nVehEntered="0"/>
    <interval begin="11500.00" end="11600.00" id="l1" nVehContrib="26" flow="936.00" occupancy="20.01" speed="9.58" length="7.00" nVehEntered="26"/>
    <interval begin="11600.00" end="11700.00" id="l1" nVehContrib="0" flow="0.00" occupancy="0.00" speed="-1.00" length="-1.00" nVehEntered="0"/>
    <interval begin="11700.00" end="11800.00" id="l1" nVehContrib="0" flow="0.00" occupancy="0.00" speed="-1.00" length="-1.00" nVehEntered="0"/>
    <interval begin="11800.00" end="11900.00" id="l1" nVehContrib="46" flow="1656.00" occupancy="31.96" speed="10.32" length="7.00" nVehEntered="46"/>
    <interval begin="11900.00" end="12000.00" id="l1" nVehContrib="20" flow="720.00" occupancy="12.90" speed="10.85" length="7.00" nVehEntered="20"/>
    <interval begin="12000.00" end="12100.00" id="l1" nVehContrib="8" flow="288.00" occupancy="6.49" speed="9.26" length="7.00" nVehEntered="8"/>
    <interval begin="12100.00" end="12200.00" id="l1" nVehContrib="25" flow="900.00" occupancy="16.65" speed="10.59" length="7.00" nVehEntered="25"/>
    <interval begin="12200.00" end="12300.00" id="l1" nVehContrib="4" flow="144.00" occupancy="2.57" speed="10.91" length="7.00" nVehEntered="4"/>
    <interval begin="12300.00" end="12400.00" id="l1" nVehContrib="0" flow="0.00" occupancy="0.00" speed="-1.00" length="-1.00" nVehEntered="0"/>
    <interval begin="12400.00" end="12500.00" id="l1" nVehContrib="0" flow="0.00" occupancy="0.00" speed="-1.00" length="-1.00" nVehEntered="0"/>
    <interval begin="12500.00" end="12600.00" id="l1" nVehContrib="14" flow="504.00" occupancy="11.34" speed="9.19" length="7.00" nVehEntered="15"/>
    <interval begin="12600.00" end="12700.00" id="l1" nVehContrib="30" flow="1080.00" occupancy="19.35" speed="10.80" length="7.00" nVehEntered="29"/>
    <interval begin="12700.00" end="12800.00" id="l1" nVehContrib="0" flow="0.00" occupancy="0.00" speed="-1.00" length="-1.00" nVehEntered="0"/>
    <interval begin="12800.00" end="12900.00" id="l1" nVehContrib="2" flow="72.00" occupancy="2.69" speed="5.21" length="7.00" nVehEntered="2"/>
    <interval begin="12900.00" end="13000.00" id="l1" nVehContrib="1" flow="36.00" occupancy="1.27" speed="5.50" length="7.00" nVehEntered="1"/>
    <interval begin="13000.00" end="13100.00" id="l1" nVehContrib="2" flow="72.00" occupancy="3.36" speed="5.34" length="7.00" nVehEntered="3"/>
    <interval begin="13100.00" end="13200.00" id="l1" nVehContrib="29" flow="1044.00" occupancy="21.34" speed="9.74" length="7.00" nVehEntered="29"/>
    <interval begin="13200.00" end="13300.00" id="l1" nVehContrib="17" flow="612.00" occupancy="11.08" speed="10.67" length="7.00" nVehEntered="16"/>
    <interval begin="13300.00" end="13400.00" id="l1" nVehContrib="0" flow="0.00" occupancy="0.00" speed="-1.00" length="-1.00" nVehEntered="0"/>
    <interval begin="13400.00" end="13500.00" id="l1" nVehContrib="1" flow="36.00" occupancy="1.33" speed="5.25" length="7.00" nVehEntered="1"/>
    <interval begin="13500.00" end="13600.00" id="l1" nVehContrib="0" flow="0.00" occupancy="0.00" speed="-1.00" length="-1.00" nVehEntered="0"/>
    <interval begin="13600.00" end="13700.00" id="l1" nVehContrib="0" flow="0.00" occupancy="0.00" speed="-1.00" length="-1.00" nVehEntered="0"/>
    <interval begin="13700.00" end="13800.00" id="l1" nVehContrib="1" flow="36.00" occupancy="0.64" speed="11.01" length="7.00" nVehEntered="1"/>
    <interval begin="13800.00" end="13900.00" id="l1" nVehContrib="43" flow="1548.00" occupancy="29.07" speed="10.50" length="7.00" nVehEntered="44"/>
    <interval begin="13900.00" end="14000.00" id="l1" nVehContrib="22" flow="792.00" occupancy="14.18" speed="10.86" length="7.00" nVehEntered="21"/>
    <interval begin="14000.00" end="14100.00" id="l1" nVehContrib="5" flow="180.00" occupancy="4.42" speed="8.77" length="7.00" nVehEntered="5"/>
    <interval begin="14100.00" end="14200.00" id="l1" nVehContrib="28" flow="1008.00" occupancy="19.09" speed="10.41" length="7.00" nVehEntered="28"/>
    <interval begin="14200.00" end="14300.00" id="l1" nVehContrib="16" flow="576.00" occupancy="10.26" speed="10.92" length="7.00" nVehEntered="16"/>
    <interval begin="14300.00" end="14400.00" id="l1" nVehContrib="0" flow="0.00" occupancy="0.00" speed="-1.00" length="-1.00" nVehEntered="0"/>
    <interval begin="14400.00" end="14500.00" id="l1" nVehContrib="33" flow="1188.00" occupancy="23.30" speed="10.20" length="7.00" nVehEntered="33"/>
    <interval begin="14500.00" end="14600.00" id="l1" nVehContrib="16" flow="576.00" occupancy="10.26" speed="10.92" length="7.00" nVehEntered="16"/>
    <interval begin="14600.00" end="14700.00" id="l1" nVehContrib="11" flow="396.00" occupancy="7.02" speed="10.96" length="7.00" nVehEntered="11"/>
    <interval begin="14700.00" end="14800.00" id="l1" nVehContrib="9" flow="324.00" occupancy="7.94" speed="8.33" length="7.00" nVehEntered="9"/>
    <interval begin="14800.00" end="14900.00" id="l1" nVehContrib="0" flow="0.00" occupancy="0.00" speed="-1.00" length="-1.00" nVehEntered="0"/>
    <interval begin="14900.00" end="15000.00" id="l1" nVehContrib="7" flow="252.00" occupancy="6.32" speed="8.06" length="7.00" nVehEntered="7"/>
    <interval begin="15000.00" end="15100.00" id="l1" nVehContrib="29" flow="1044.00" occupancy="21.51" speed="9.88" length="7.00" nVehEntered="29"/>
    <interval begin="15100.00" end="15200.00" id="l1" nVehContrib="8" flow="288.00" occupancy="5.16" speed="10.86" length="7.00" nVehEntered="8"/>
    <interval begin="15200.00" end="15300.00" id="l1" nVehContrib="0" flow="0.00" occupancy="0.00" speed="-1.00" length="-1.00" nVehEntered="0"/>
    <interval begin="15300.00" end="15400.00" id="l1" nVehContrib="4" flow="144.00" occupancy="4.33" speed="6.81" length="7.00" nVehEntered="5"/>
    <interval begin="15400.00" end="15500.00" id="l1" nVehContrib="48" flow="1728.00" occupancy="31.48" speed="10.67" length="7.00" nVehEntered="47"/>
    <interval begin="15500.00" end="15600.00" id="l1" nVehContrib="17" flow="612.00" occupancy="10.94" speed="10.88" length="7.00" nVehEntered="17"/>
    <interval begin="15600.00" end="15700.00" id="l1" nVehContrib="5" flow="180.00" occupancy="3.21" speed="10.91" length="7.00" nVehEntered="5"/>
    <interval begin="15700.00" end="15800.00" id="l1" nVehContrib="0" flow="0.00" occupancy="0.00" speed="-1.00" length="-1.00" nVehEntered="0"/>
    <interval begin="15800.00" end="15900.00" id="l1" nVehContrib="0" flow="0.00" occupancy="0.00" speed="-1.00" length="-1.00" nVehEntered="0"/>
    <interval begin="15900.00" end="16000.00" id="l1" nVehContrib="6" flow="216.00" occupancy="5.63" speed="7.82" length="7.00" nVehEntered="6"/>
    <interval begin="16000.00" end="16100.00" id="l1" nVehContrib="11" flow="396.00" occupancy="9.19" speed="8.89" length="7.00" nVehEntered="11"/>
    <interval begin="16100.00" end="16200.00" id="l1" nVehContrib="28" flow="1008.00" occupancy="20.46" speed="9.96" length="7.00" nVehEntered="28"/>
    <interval begin="16200.00" end="16300.00" id="l1" nVehContrib="0" flow="0.00" occupancy="0.00" speed="-1.00" length="-1.00" nVehEntered="0"/>
    <interval begin="16300.00" end="16400.00" id="l1" nVehContrib="0" flow="0.00" occupancy="0.00" speed="-1.00" length="-1.00" nVehEntered="0"/>
    <interval begin="16400.00" end="16500.00" id="l1" nVehContrib="1" flow="36.00" occupancy="0.63" speed="11.05" length="7.00" nVehEntered="1"/>
    <interval begin="16500.00" end="16600.00" id="l1" nVehContrib="14" flow="504.00" occupancy="11.30" speed="9.15" length="7.00" nVehEntered="14"/>
    <interval begin="16600.00" end="16700.00" id="l1" nVehContrib="5" flow="180.00" occupancy="5.56" speed="7.13" length="7.00" nVehEntered="6"/>
    <interval begin="16700.00" end="16800.00" id="l1" nVehContrib="39" flow="1404.00" occupancy="24.79" speed="10.78" length="7.00" nVehEntered="38"/>
    <interval begin="16800.00" end="16900.00" id="l1" nVehContrib="7" flow="252.00" occupancy="6.41" speed="7.93" length="7.00" nVehEntered="7"/>
    <interval begin="16900.00" end="17000.00" id="l1" nVehContrib="0" flow="0.00" occupancy="0.00" speed="-1.00" length="-1.00" nVehEntered="0"/>
    <interval begin="17000.00" end="17100.00" id="l1" nVehContrib="9" flow="324.00" occupancy="8.00" speed="8.31" length="7.00" nVehEntered="9"/>
    <interval begin="17100.00" end="17200.00" id="l1" nVehContrib="36" flow="1296.00" occupancy="23.22" speed="10.85" length="7.00" nVehEntered="36"/>
    <interval begin="17200.00" end="17300.00" id="l1" nVehContrib="25" flow="900.00" occupancy="18.01" speed="10.03" length="7.00" nVehEntered="25"/>
    <interval begin="17300.00" end="17400.00" id="l1" nVehContrib="8" flow="288.00" occupancy="7.23" speed="8.29" length="7.00" nVehEntered="8"/>
    <interval begin="17400.00" end="17500.00" id="l1" nVehContrib="10" flow="360.00" occupancy="8.69" speed="8.57" length="7.00" nVehEntered="10"/>
    <interval begin="17500.00" end="17600.00" id="l1" nVehContrib="14" flow="504.00" occupancy="8.98" speed="10.91" length="7.00" nVehEntered="14"/>
    <interval begin="17600.00" end="17700.00" id="l1" nVehContrib="11" flow="396.00" occupancy="7.03" speed="10.96" length="7.00" nVehEntered="11"/>
    <interval begin="17700.00" end="17800.00" id="l1" nVehContrib="8" flow="288.00" occupancy="7.16" speed="8.16" length="7.00" nVehEntered="8"/>
    <interval begin="17800.00" end="17900.00" id="l1" nVehContrib="13" flow="468.00" occupancy="8.37" speed="10.87" length="7.00" nVehEntered="13"/>
    <interval begin="17900.00" end="18000.00" id="l1" nVehContrib="1" flow="36.00" occupancy="0.64" speed="10.93" length="7.00" nVehEntered="1"/>
    <interval begin="18000.00" end="18100.00" id="l1" nVehContrib="7" flow="252.00" occupancy="6.72" speed="7.61" length="7.00" nVehEntered="7"/>
    <interval begin="18100.00" end="18200.00" id="l1" nVehContrib="8" flow="288.00" occupancy="5.99" speed="10.73" length="7.00" nVehEntered="9"/>
    <interval begin="18200.00" end="18300.00" id="l1" nVehContrib="12" flow="432.00" occupancy="9.05" speed="9.06" length="7.00" nVehEntered="11"/>
    <interval begin="18300.00" end="18400.00" id="l1" nVehContrib="9" flow="324.00" occupancy="7.64" speed="8.78" length="7.00" nVehEntered="9"/>
    <interval begin="18400.00" end="18500.00" id="l1" nVehContrib="4" flow="144.00" occupancy="2.57" speed="10.89" length="7.00" nVehEntered="4"/>
    <interval begin="18500.00" end="18600.00" id="l1" nVehContrib="22" flow="792.00" occupancy="16.20" speed="9.85" length="7.00" nVehEntered="22"/>
    <interval begin="18600.00" end="18700.00" id="l1" nVehContrib="4" flow="144.00" occupancy="3.25" speed="9.32" length="7.00" nVehEntered="4"/>
    <interval begin="18700.00" end="18800.00" id="l1" nVehContrib="16" flow="576.00" occupancy="12.45" speed="9.50" length="7.00" nVehEntered="16"/>
    <interval begin="18800.00" end="18900.00" id="l1" nVehContrib="10" flow="360.00" occupancy="6.44" speed="10.87" length="7.00" nVehEntered="10"/>
    <interval begin="18900.00" end="19000.00" id="l1" nVehContrib="5" flow="180.00" occupancy="3.22" speed="10.85" length="7.00" nVehEntered="5"/>
    <interval begin="19000.00" end="19100.00" id="l1" nVehContrib="10" flow="360.00" occupancy="8.52" speed="8.66" length="7.00" nVehEntered="10"/>
    <interval begin="19100.00" end="19200.00" id="l1" nVehContrib="10" flow="360.00" occupancy="6.43" speed="10.88" length="7.00" nVehEntered="10"/>
    <interval begin="19200.00" end="19300.00" id="l1" nVehContrib="9" flow="324.00" occupancy="5.77" speed="10.93" length="7.00" nVehEntered="9"/>
    <interval begin="19300.00" end="19400.00" id="l1" nVehContrib="6" flow="216.00" occupancy="3.88" speed="10.82" length="7.00" nVehEntered="6"/>
    <interval begin="19400.00" end="19500.00" id="l1" nVehContrib="12" flow="432.00" occupancy="9.88" speed="8.90" length="7.00" nVehEntered="12"/>
    <interval begin="19500.00" end="19600.00" id="l1" nVehContrib="7" flow="252.00" occupancy="4.49" speed="10.91" length="7.00" nVehEntered="7"/>
    <interval begin="19600.00" end="19700.00" id="l1" nVehContrib="14" flow="504.00" occupancy="11.25" speed="9.30" length="7.00" nVehEntered="14"/>
    <interval begin="19700.00" end="19800.00" id="l1" nVehContrib="9" flow="324.00" occupancy="5.77" speed="10.92" length="7.00" nVehEntered="9"/>