<?xml version="1.0" encoding="UTF-8"?>

<!-- generated on Fri Sep  8 11:25:12 2017 by SUMO gui Version 0.30.0
<?xml version="1.0" encoding="UTF-8"?>

<configuration xmlns:xsi="http://www.w3.org/2001/XMLSchema-instance" xsi:noNamespaceSchemaLocation="http://sumo.dlr.de/xsd/sumoConfiguration.xsd">

    <input>
        <net-file value="data/cross.net.xml"/>
        <route-files value="data/cross.rou.xml"/>
        <additional-files value="data/cross1.det.xml"/>
    </input>

    <output>
        <tripinfo-output value="tripinfo.xml"/>
    </output>

    <time>
        <begin value="0"/>
    </time>

    <report>
        <verbose value="true"/>
        <no-step-log value="true"/>
    </report>

    <traci_server>
        <remote-port value="49621"/>
    </traci_server>

    <gui_only>
        <gui-settings-file value="data/gui.settings.xml"/>
    </gui_only>

</configuration>
-->

<detector xmlns:xsi="http://www.w3.org/2001/XMLSchema-ins-->

<detector xmlns:xsi="http://www.w3.org/2001/XMLSchema-instance" xsi:noNamespaceSchemaLocation="http://sumo.dlr.de/xsd/det_e1_file.xsd">
    <interval begin="0.00" end="100.00" id="l3" nVehContrib="0" flow="0.00" occupancy="0.00" speed="-1.00" length="-1.00" nVehEntered="0"/>
    <interval begin="100.00" end="200.00" id="l3" nVehContrib="1" flow="36.00" occupancy="1.25" speed="5.61" length="7.00" nVehEntered="1"/>
    <interval begin="200.00" end="300.00" id="l3" nVehContrib="3" flow="108.00" occupancy="3.88" speed="5.42" length="7.00" nVehEntered="3"/>
    <interval begin="300.00" end="400.00" id="l3" nVehContrib="2" flow="72.00" occupancy="3.22" speed="5.26" length="7.00" nVehEntered="3"/>
    <interval begin="400.00" end="500.00" id="l3" nVehContrib="3" flow="108.00" occupancy="3.57" speed="5.10" length="7.00" nVehEntered="2"/>
    <interval begin="500.00" end="600.00" id="l3" nVehContrib="3" flow="108.00" occupancy="3.84" speed="5.47" length="7.00" nVehEntered="3"/>
    <interval begin="600.00" end="700.00" id="l3" nVehContrib="13" flow="468.00" occupancy="11.74" speed="8.20" length="7.00" nVehEntered="13"/>
    <interval begin="700.00" end="800.00" id="l3" nVehContrib="18" flow="648.00" occupancy="14.12" speed="9.54" length="7.00" nVehEntered="19"/>
</detector>
 occupancy="6.10" speed="5.37" length="7.00" nVehEntered="4"/>
    <interval begin="900.00" end="1000.00" id="l3" nVehContrib="4" flow="144.00" occupancy="5.07" speed="5.53" length="7.00" nVehEntered="4"/>
    <interval begin="1000.00" end="1100.00" id="l3" nVehContrib="3" flow="108.00" occupancy="4.05" speed="5.18" length="7.00" nVehEntered="3"/>
    <interval begin="1100.00" end="1200.00" id="l3" nVehContrib="5" flow="180.00" occupancy="6.32" speed="5.57" length="7.00" nVehEntered="5"/>
    <interval begin="1200.00" end="1300.00" id="l3" nVehContrib="4" flow="144.00" occupancy="5.24" speed="5.35" length="7.00" nVehEntered="4"/>
    <interval begin="1300.00" end="1400.00" id="l3" nVehContrib="5" flow="180.00" occupancy="6.41" speed="5.50" length="7.00" nVehEntered="5"/>
    <interval begin="1400.00" end="1500.00" id="l3" nVehContrib="6" flow="216.00" occupancy="7.08" speed="6.02" length="7.00" nVehEntered="6"/>
    <interval begin="1500.00" end="1600.00" id="l3" nVehContrib="3" flow="108.00" occupancy="3.81" speed="5.52" length="7.00" nVehEntered="3"/>
    <interval begin="1600.00" end="1700.00" id="l3" nVehContrib="4" flow="144.00" occupancy="5.20" speed="5.39" length="7.00" nVehEntered="4"/>
    <interval begin="1700.00" end="1800.00" id="l3" nVehContrib="7" flow="252.00" occupancy="8.19" speed="6.12" length="7.00" nVehEntered="7"/>
    <interval begin="1800.00" end="1900.00" id="l3" nVehContrib="4" flow="144.00" occupancy="5.15" speed="5.43" length="7.00" nVehEntered="4"/>
    <interval begin="1900.00" end="2000.00" id="l3" nVehContrib="4" flow="144.00" occupancy="5.19" speed="5.39" length="7.00" nVehEntered="4"/>
    <interval begin="2000.00" end="2100.00" id="l3" nVehContrib="4" flow="144.00" occupancy="5.28" speed="5.31" length="7.00" nVehEntered="4"/>
    <interval begin="2100.00" end="2200.00" id="l3" nVehContrib="3" flow="108.00" occupancy="3.88" speed="5.42" length="7.00" nVehEntered="3"/>
    <interval begin="2200.00" end="2300.00" id="l3" nVehContrib="3" flow="108.00" occupancy="3.92" speed="5.35" length="7.00" nVehEntered="3"/>
    <interval begin="2300.00" end="2400.00" id="l3" nVehContrib="3" flow="108.00" occupancy="4.03" speed="5.22" length="7.00" nVehEntered="3"/>
    <interval begin="2400.00" end="2500.00" id="l3" nVehContrib="5" flow="180.00" occupancy="6.76" speed="5.18" length="7.00" nVehEntered="5"/>
    <interval begin="2500.00" end="2600.00" id="l3" nVehContrib="8" flow="288.00" occupancy="8.99" speed="6.42" length="7.00" nVehEntered="8"/>
    <interval begin="2600.00" end="2700.00" id="l3" nVehContrib="3" flow="108.00" occupancy="3.85" speed="5.45" length="7.00" nVehEntered="3"/>
    <interval begin="2700.00" end="2800.00" id="l3" nVehContrib="7" flow="252.00" occupancy="8.03" speed="6.24" length="7.00" nVehEntered="7"/>
    <interval begin="2800.00" end="2900.00" id="l3" nVehContrib="5" flow="180.00" occupancy="6.58" speed="5.34" length="7.00" nVehEntered="5"/>
    <interval begin="2900.00" end="3000.00" id="l3" nVehContrib="5" flow="180.00" occupancy="6.53" speed="5.36" length="7.00" nVehEntered="5"/>
    <interval begin="3000.00" end="3100.00" id="l3" nVehContrib="3" flow="108.00" occupancy="4.04" speed="5.20" length="7.00" nVehEntered="3"/>
    <interval begin="3100.00" end="3200.00" id="l3" nVehContrib="6" flow="216.00" occupancy="7.38" speed="5.73" length="7.00" nVehEntered="6"/>
    <interval begin="3200.00" end="3300.00" id="l3" nVehContrib="4" flow="144.00" occupancy="5.25" speed="5.34" length="7.00" nVehEntered="4"/>
    <interval begin="3300.00" end="3400.00" id="l3" nVehContrib="5" flow="180.00" occupancy="6.69" speed="5.24" length="7.00" nVehEntered="5"/>
    <interval begin="3400.00" end="3500.00" id="l3" nVehContrib="5" flow="180.00" occupancy="6.57" speed="5.34" length="7.00" nVehEntered="5"/>
    <interval begin="3500.00" end="3600.00" id="l3" nVehContrib="5" flow="180.00" occupancy="6.33" speed="5.59" length="7.00" nVehEntered="5"/>
    <interval begin="3600.00" end="3700.00" id="l3" nVehContrib="3" flow="108.00" occupancy="3.90" speed="5.38" length="7.00" nVehEntered="3"/>
    <interval begin="3700.00" end="3800.00" id="l3" nVehContrib="5" flow="180.00" occupancy="6.59" speed="5.32" length="7.00" nVehEntered="5"/>
    <interval begin="3800.00" end="3900.00" id="l3" nVehContrib="5" flow="180.00" occupancy="6.37" speed="5.51" length="7.00" nVehEntered="5"/>
    <interval begin="3900.00" end="4000.00" id="l3" nVehContrib="4" flow="144.00" occupancy="5.27" speed="5.31" length="7.00" nVehEntered="4"/>
    <interval begin="4000.00" end="4100.00" id="l3" nVehContrib="5" flow="180.00" occupancy="6.59" speed="5.31" length="7.00" nVehEntered="5"/>
    <interval begin="4100.00" end="4200.00" id="l3" nVehContrib="5" flow="180.00" occupancy="6.69" speed="5.24" length="7.00" nVehEntered="5"/>
    <interval begin="4200.00" end="4300.00" id="l3" nVehContrib="4" flow="144.00" occupancy="5.16" speed="5.43" length="7.00" nVehEntered="4"/>
    <interval begin="4300.00" end="4400.00" id="l3" nVehContrib="5" flow="180.00" occupancy="6.50" speed="5.41" length="7.00" nVehEntered="5"/>
    <interval begin="4400.00" end="4500.00" id="l3" nVehContrib="4" flow="144.00" occupancy="6.51" speed="5.30" length="7.00" nVehEntered="5"/>
    <interval begin="4500.00" end="4600.00" id="l3" nVehContrib="5" flow="180.00" occupancy="5.14" speed="5.50" length="7.00" nVehEntered="4"/>
    <interval begin="4600.00" end="4700.00" id="l3" nVehContrib="3" flow="108.00" occupancy="3.97" speed="5.29" length="7.00" nVehEntered="3"/>
    <interval begin="4700.00" end="4800.00" id="l3" nVehContrib="5" flow="180.00" occupancy="6.19" speed="5.70" length="7.00" nVehEntered="5"/>
    <interval begin="4800.00" end="4900.00" id="l3" nVehContrib="8" flow="288.00" occupancy="9.15" speed="6.24" length="7.00" nVehEntered="8"/>
    <interval begin="4900.00" end="5000.00" id="l3" nVehContrib="4" flow="144.00" occupancy="5.31" speed="5.27" length="7.00" nVehEntered="4"/>
    <interval begin="5000.00" end="5100.00" id="l3" nVehContrib="5" flow="180.00" occupancy="6.67" speed="5.56" length="7.00" nVehEntered="6"/>
    <interval begin="5100.00" end="5200.00" id="l3" nVehContrib="7" flow="252.00" occupancy="8.03" speed="5.90" length="7.00" nVehEntered="6"/>
    <interval begin="5200.00" end="5300.00" id="l3" nVehContrib="4" flow="144.00" occupancy="5.02" speed="5.61" length="7.00" nVehEntered="4"/>
    <interval begin="5300.00" end="5400.00" id="l3" nVehContrib="6" flow="216.00" occupancy="7.46" speed="5.73" length="7.00" nVehEntered="6"/>
    <interval begin="5400.00" end="5500.00" id="l3" nVehContrib="3" flow="108.00" occupancy="3.89" speed="5.41" length="7.00" nVehEntered="3"/>
    <interval begin="5500.00" end="5600.00" id="l3" nVehContrib="2" flow="72.00" occupancy="2.67" speed="5.25" length="7.00" nVehEntered="2"/>
    <interval begin="5600.00" end="5700.00" id="l3" nVehContrib="10" flow="360.00" occupancy="9.96" speed="7.39" length="7.00" nVehEntered="10"/>
    <interval begin="5700.00" end="5800.00" id="l3" nVehContrib="11" flow="396.00" occupancy="12.10" speed="6.63" length="7.00" nVehEntered="11"/>
    <interval begin="5800.00" end="5900.00" id="l3" nVehContrib="7" flow="252.00" occupancy="7.97" speed="6.47" length="7.00" nVehEntered="7"/>
    <interval begin="5900.00" end="6000.00" id="l3" nVehContrib="4" flow="144.00" occupancy="4.99" speed="5.64" length="7.00" nVehEntered="4"/>
    <interval begin="6000.00" end="6100.00" id="l3" nVehContrib="4" flow="144.00" occupancy="5.29" speed="5.30" length="7.00" nVehEntered="4"/>
    <interval begin="6100.00" end="6200.00" id="l3" nVehContrib="5" flow="180.00" occupancy="6.27" speed="5.63" length="7.00" nVehEntered="5"/>
    <interval begin="6200.00" end="6300.00" id="l3" nVehContrib="2" flow="72.00" occupancy="2.74" speed="5.12" length="7.00" nVehEntered="2"/>
    <interval begin="6300.00" end="6400.00" id="l3" nVehContrib="4" flow="144.00" occupancy="5.22" speed="5.38" length="7.00" nVehEntered="4"/>
    <interval begin="6400.00" end="6500.00" id="l3" nVehContrib="6" flow="216.00" occupancy="7.37" speed="5.73" length="7.00" nVehEntered="6"/>
    <interval begin="6500.00" end="6600.00" id="l3" nVehContrib="5" flow="180.00" occupancy="6.40" speed="5.51" length="7.00" nVehEntered="5"/>
    <interval begin="6600.00" end="6700.00" id="l3" nVehContrib="10" flow="360.00" occupancy="10.32" speed="7.08" length="7.00" nVehEntered="10"/>
    <interval begin="6700.00" end="6800.00" id="l3" nVehContrib="3" flow="108.00" occupancy="4.00" speed="5.25" length="7.00" nVehEntered="3"/>
    <interval begin="6800.00" end="6900.00" id="l3" nVehContrib="9" flow="324.00" occupancy="9.89" speed="6.42" length="7.00" nVehEntered="9"/>
    <interval begin="6900.00" end="7000.00" id="l3" nVehContrib="7" flow="252.00" occupancy="8.55" speed="5.79" length="7.00" nVehEntered="7"/>
    <interval begin="7000.00" end="7100.00" id="l3" nVehContrib="14" flow="504.00" occupancy="13.71" speed="7.52" length="7.00" nVehEntered="14"/>
    <interval begin="7100.00" end="7200.00" id="l3" nVehContrib="8" flow="288.00" occupancy="8.52" speed="6.94" length="7.00" nVehEntered="8"/>
    <interval begin="7200.00" end="7300.00" id="l3" nVehContrib="3" flow="108.00" occupancy="4.33" speed="5.73" length="7.00" nVehEntered="4"/>
    <interval begin="7300.00" end="7400.00" id="l3" nVehContrib="5" flow="180.00" occupancy="5.57" speed="5.67" length="7.00" nVehEntered="4"/>
    <interval begin="7400.00" end="7500.00" id="l3" nVehContrib="10" flow="360.00" occupancy="9.80" speed="7.65" length="7.00" nVehEntered="10"/>
    <interval begin="7500.00" end="7600.00" id="l3" nVehContrib="18" flow="648.00" occupancy="15.67" speed="8.75" length="7.00" nVehEntered="18"/>
    <interval begin="7600.00" end="7700.00" id="l3" nVehContrib="4" flow="144.00" occupancy="5.01" speed="5.61" length="7.00" nVehEntered="4"/>
    <interval begin="7700.00" end="7800.00" id="l3" nVehContrib="4" flow="144.00" occupancy="5.25" speed="5.34" length="7.00" nVehEntered="4"/>
    <interval begin="7800.00" end="7900.00" id="l3" nVehContrib="9" flow="324.00" occupancy="10.38" speed="6.16" length="7.00" nVehEntered="9"/>
    <interval begin="7900.00" end="8000.00" id="l3" nVehContrib="6" flow="216.00" occupancy="6.41" speed="6.77" length="7.00" nVehEntered="6"/>
    <interval begin="8000.00" end="8100.00" id="l3" nVehContrib="10" flow="360.00" occupancy="10.59" speed="6.84" length="7.00" nVehEntered="10"/>
    <interval begin="8100.00" end="8200.00" id="l3" nVehContrib="4" flow="144.00" occupancy="5.32" speed="5.26" length="7.00" nVehEntered="4"/>
    <interval begin="8200.00" end="8300.00" id="l3" nVehContrib="9" flow="324.00" occupancy="9.88" speed="6.54" length="7.00" nVehEntered="9"/>
    <interval begin="8300.00" end="8400.00" id="l3" nVehContrib="6" flow="216.00" occupancy="5.94" speed="7.35" length="7.00" nVehEntered="6"/>
    <interval begin="8400.00" end="8500.00" id="l3" nVehContrib="8" flow="288.00" occupancy="9.35" speed="6.10" length="7.00" nVehEntered="8"/>
    <interval begin="8500.00" end="8600.00" id="l3" nVehContrib="2" flow="72.00" occupancy="2.66" speed="5.26" length="7.00" nVehEntered="2"/>
    <interval begin="8600.00" end="8700.00" id="l3" nVehContrib="4" flow="144.00" occupancy="4.29" speed="6.66" length="7.00" nVehEntered="4"/>
    <interval begin="8700.00" end="8800.00" id="l3" nVehContrib="3" flow="108.00" occupancy="3.79" speed="5.59" length="7.00" nVehEntered="3"/>
    <interval begin="8800.00" end="8900.00" id="l3" nVehContrib="6" flow="216.00" occupancy="7.47" speed="5.72" length="7.00" nVehEntered="6"/>
    <interval begin="8900.00" end="9000.00" id="l3" nVehContrib="5" flow="180.00" occupancy="6.16" speed="5.75" length="7.00" nVehEntered="5"/>
    <interval begin="9000.00" end="9100.00" id="l3" nVehContrib="6" flow="216.00" occupancy="5.35" speed="8.00" length="7.00" nVehEntered="6"/>
    <interval begin="9100.00" end="9200.00" id="l3" nVehContrib="10" flow="360.00" occupancy="11.28" speed="6.36" length="7.00" nVehEntered="10"/>
    <interval begin="9200.00" end="9300.00" id="l3" nVehContrib="17" flow="612.00" occupancy="15.32" speed="8.34" length="7.00" nVehEntered="17"/>
    <interval begin="9300.00" end="9400.00" id="l3" nVehContrib="7" flow="252.00" occupancy="6.73" speed="7.49" length="7.00" nVehEntered="7"/>
    <interval begin="9400.00" end="9500.00" id="l3" nVehContrib="28" flow="1008.00" occupancy="22.25" speed="9.28" length="7.00" nVehEntered="28"/>
    <interval begin="9500.00" end="9600.00" id="l3" nVehContrib="27" flow="972.00" occupancy="19.72" speed="9.93" length="7.00" nVehEntered="27"/>
    <interval begin="9600.00" end="9700.00" id="l3" nVehContrib="15" flow="540.00" occupancy="13.83" speed="7.94" length="7.00" nVehEntered="15"/>
    <interval begin="9700.00" end="9800.00" id="l3" nVehContrib="20" flow="720.00" occupancy="14.57" speed="10.02" length="7.00" nVehEntered="20"/>
    <interval begin="9800.00" end="9900.00" id="l3" nVehContrib="18" flow="648.00" occupancy="16.45" speed="8.23" length="7.00" nVehEntered="18"/>
    <interval begin="9900.00" end="10000.00" id="l3" nVehContrib="7" flow="252.00" occupancy="5.36" speed="9.75" length="7.00" nVehEntered="7"/>
    <interval begin="10000.00" end="10100.00" id="l3" nVehContrib="25" flow="900.00" occupancy="20.25" speed="9.12" length="7.00" nVehEntered="25"/>
    <interval begin="10100.00" end="10200.00" id="l3" nVehContrib="12" flow="432.00" occupancy="10.46" speed="8.51" length="7.00" nVehEntered="12"/>
    <interval begin="10200.00" end="10300.00" id="l3" nVehContrib="16" flow="576.00" occupancy="13.04" speed="9.06" length="7.00" nVehEntered="16"/>
    <interval begin="10300.00" end="10400.00" id="l3" nVehContrib="20" flow="720.00" occupancy="15.68" speed="9.51" length="7.00" nVehEntered="20"/>
    <interval begin="10400.00" end="10500.00" id="l3" nVehContrib="13" flow="468.00" occupancy="8.39" speed="10.84" length="7.00" nVehEntered="13"/>
    <interval begin="10500.00" end="10600.00" id="l3" nVehContrib="1" flow="36.00" occupancy="1.39" speed="5.04" length="7.00" nVehEntered="1"/>
    <interval begin="10600.00" end="10700.00" id="l3" nVehContrib="34" flow="1224.00" occupancy="24.41" speed="10.09" length="7.00" nVehEntered="35"/>
    <interval begin="10700.00" end="10800.00" id="l3" nVehContrib="13" flow="468.00" occupancy="8.93" speed="10.43" length="7.00" nVehEntered="12"/>
    <interval begin="10800.00" end="10900.00" id="l3" nVehContrib="2" flow="72.00" occupancy="2.71" speed="5.17" length="7.00" nVehEntered="2"/>
    <interval begin="10900.00" end="11000.00" id="l3" nVehContrib="2" flow="72.00" occupancy="2.56" speed="5.47" length="7.00" nVehEntered="2"/>
    <interval begin="11000.00" end="11100.00" id="l3" nVehContrib="18" flow="648.00" occupancy="13.84" speed="9.58" length="7.00" nVehEntered="19"/>
    <interval begin="11100.00" end="11200.00" id="l3" nVehContrib="35" flow="1260.00" occupancy="25.29" speed="10.17" length="7.00" nVehEntered="35"/>
    <interval begin="11200.00" end="11300.00" id="l3" nVehContrib="19" flow="684.00" occupancy="12.00" speed="10.86" length="7.00" nVehEntered="18"/>
    <interval begin="11300.00" end="11400.00" id="l3" nVehContrib="8" flow="288.00" occupancy="5.11" speed="10.96" length="7.00" nVehEntered="8"/>
    <interval begin="11400.00" end="11500.00" id="l3" nVehContrib="20" flow="720.00" occupancy="16.60" speed="9.07" length="7.00" nVehEntered="20"/>
    <interval begin="11500.00" end="11600.00" id="l3" nVehContrib="15" flow="540.00" occupancy="11.76" speed="9.37" length="7.00" nVehEntered="15"/>
    <interval begin="11600.00" end="11700.00" id="l3" nVehContrib="3" flow="108.00" occupancy="4.08" speed="5.16" length="7.00" nVehEntered="3"/>
    <interval begin="11700.00" end="11800.00" id="l3" nVehContrib="7" flow="252.00" occupancy="7.72" speed="6.55" length="7.00" nVehEntered="7"/>
    <interval begin="11800.00" end="11900.00" id="l3" nVehContrib="42" flow="1512.00" occupancy="27.43" speed="10.73" length="7.00" nVehEntered="42"/>
    <interval begin="11900.00" end="12000.00" id="l3" nVehContrib="1" flow="36.00" occupancy="1.32" speed="5.30" length="7.00" nVehEntered="1"/>
    <interval begin="12000.00" end="12100.00" id="l3" nVehContrib="1" flow="36.00" occupancy="1.34" speed="5.24" length="7.00" nVehEntered="1"/>
    <interval begin="12100.00" end="12200.00" id="l3" nVehContrib="45" flow="1620.00" occupancy="31.29" speed="10.33" length="7.00" nVehEntered="46"/>
    <interval begin="12200.00" end="12300.00" id="l3" nVehContrib="9" flow="324.00" occupancy="5.71" speed="10.83" length="7.00" nVehEntered="8"/>
    <interval begin="12300.00" end="12400.00" id="l3" nVehContrib="10" flow="360.00" occupancy="8.61" speed="8.57" length="7.00" nVehEntered="10"/>
    <interval begin="12400.00" end="12500.00" id="l3" nVehContrib="27" flow="972.00" occupancy="17.50" speed="10.81" length="7.00" nVehEntered="27"/>
    <interval begin="12500.00" end="12600.00" id="l3" nVehContrib="0" flow="0.00" occupancy="0.00" speed="-1.00" length="-1.00" nVehEntered="0"/>
    <interval begin="12600.00" end="12700.00" id="l3" nVehContrib="24" flow="864.00" occupancy="18.42" speed="9.66" length="7.00" nVehEntered="24"/>
    <interval begin="12700.00" end="12800.00" id="l3" nVehContrib="31" flow="1116.00" occupancy="22.94" speed="9.89" length="7.00" nVehEntered="32"/>
    <interval begin="12800.00" end="12900.00" id="l3" nVehContrib="5" flow="180.00" occupancy="5.75" speed="8.03" length="7.00" nVehEntered="5"/>
    <interval begin="12900.00" end="13000.00" id="l3" nVehContrib="28" flow="1008.00" occupancy="19.03" speed="10.13" length="7.00" nVehEntered="28"/>
    <interval begin="13000.00" end="13100.00" id="l3" nVehContrib="17" flow="612.00" occupancy="12.31" speed="10.09" length="7.00" nVehEntered="16"/>
    <interval begin="13100.00" end="13200.00" id="l3" nVehContrib="14" flow="504.00" occupancy="8.95" speed="10.96" length="7.00" nVehEntered="14"/>
    <interval begin="13200.00" end="13300.00" id="l3" nVehContrib="5" flow="180.00" occupancy="5.40" speed="6.75" length="7.00" nVehEntered="5"/>
    <interval begin="13300.00" end="13400.00" id="l3" nVehContrib="29" flow="1044.00" occupancy="21.06" speed="10.04" length="7.00" nVehEntered="29"/>
    <interval begin="13400.00" end="13500.00" id="l3" nVehContrib="16" flow="576.00" occupancy="10.26" speed="10.91" length="7.00" nVehEntered="16"/>
    <interval begin="13500.00" end="13600.00" id="l3" nVehContrib="16" flow="576.00" occupancy="10.26" speed="10.91" length="7.00" nVehEntered="16"/>
    <interval begin="13600.00" end="13700.00" id="l3" nVehContrib="16" flow="576.00" occupancy="10.27" speed="10.90" length="7.00" nVehEntered="16"/>
    <interval begin="13700.00" end="13800.00" id="l3" nVehContrib="11" flow="396.00" occupancy="7.05" speed="10.92" length="7.00" nVehEntered="11"/>
    <interval begin="13800.00" end="13900.00" id="l3" nVehContrib="2" flow="72.00" occupancy="2.66" speed="5.26" length="7.00" nVehEntered="2"/>
    <interval begin="13900.00" end="14000.00" id="l3" nVehContrib="18" flow="648.00" occupancy="14.30" speed="9.31" length="7.00" nVehEntered="18"/>
    <interval begin="14000.00" end="14100.00" id="l3" nVehContrib="34" flow="1224.00" occupancy="24.22" speed="10.15" length="7.00" nVehEntered="34"/>
    <interval begin="14100.00" end="14200.00" id="l3" nVehContrib="1" flow="36.00" occupancy="1.35" speed="5.20" length="7.00" nVehEntered="1"/>
    <interval begin="14200.00" end="14300.00" id="l3" nVehContrib="2" flow="72.00" occupancy="2.60" speed="5.39" length="7.00" nVehEntered="2"/>
    <interval begin="14300.00" end="14400.00" id="l3" nVehContrib="17" flow="612.00" occupancy="14.97" speed="8.88" length="7.00" nVehEntered="18"/>
    <interval begin="14400.00" end="14500.00" id="l3" nVehContrib="39" flow="1404.00" occupancy="24.77" speed="10.79" length="7.00" nVehEntered="38"/>
    <interval begin="14500.00" end="14600.00" id="l3" nVehContrib="18" flow="648.00" occupancy="13.92" speed="9.53" length="7.00" nVehEntered="18"/>
    <interval begin="14600.00" end="14700.00" id="l3" nVehContrib="5" flow="180.00" occupancy="3.87" speed="9.80" length="7.00" nVehEntered="5"/>
    <interval begin="14700.00" end="14800.00" id="l3" nVehContrib="1" flow="36.00" occupancy="1.45" speed="4.82" length="7.00" nVehEntered="1"/>
    <interval begin="14800.00" end="14900.00" id="l3" nVehContrib="19" flow="684.00" occupancy="15.27" speed="9.28" length="7.00" nVehEntered="19"/>
    <interval begin="14900.00" end="15000.00" id="l3" nVehContrib="0" flow="0.00" occupancy="0.00" speed="-1.00" length="-1.00" nVehEntered="0"/>
    <interval begin="15000.00" end="15100.00" id="l3" nVehContrib="0" flow="0.00" occupancy="0.00" speed="-1.00" length="-1.00" nVehEntered="0"/>
    <interval begin="15100.00" end="15200.00" id="l3" nVehContrib="3" flow="108.00" occupancy="4.01" speed="5.25" length="7.00" nVehEntered="3"/>
    <interval begin="15200.00" end="15300.00" id="l3" nVehContrib="1" flow="36.00" occupancy="1.32" speed="5.31" length="7.00" nVehEntered="1"/>
    <interval begin="15300.00" end="15400.00" id="l3" nVehContrib="0" flow="0.00" occupancy="0.00" speed="-1.00" length="-1.00" nVehEntered="0"/>
    <interval begin="15400.00" end="15500.00" id="l3" nVehContrib="30" flow="1080.00" occupancy="21.39" speed="10.11" length="7.00" nVehEntered="30"/>
    <interval begin="15500.00" end="15600.00" id="l3" nVehContrib="13" flow="468.00" occupancy="13.06" speed="7.26" length="7.00" nVehEntered="13"/>
    <interval begin="15600.00" end="15700.00" id="l3" nVehContrib="18" flow="648.00" occupancy="14.37" speed="9.35" length="7.00" nVehEntered="18"/>
    <interval begin="15700.00" end="15800.00" id="l3" nVehContrib="33" flow="1188.00" occupancy="21.35" speed="10.82" length="7.00" nVehEntered="33"/>
    <interval begin="15800.00" end="15900.00" id="l3" nVehContrib="7" flow="252.00" occupancy="4.46" speed="10.98" length="7.00" nVehEntered="7"/>
    <interval begin="15900.00" end="16000.00" id="l3" nVehContrib="0" flow="0.00" occupancy="0.00" speed="-1.00" length="-1.00" nVehEntered="0"/>
    <interval begin="16000.00" end="16100.00" id="l3" nVehContrib="32" flow="1152.00" occupancy="22.79" speed="10.15" length="7.00" nVehEntered="32"/>
    <interval begin="16100.00" end="16200.00" id="l3" nVehContrib="17" flow="612.00" occupancy="11.70" speed="10.51" length="7.00" nVehEntered="17"/>
    <interval begin="16200.00" end="16300.00" id="l3" nVehContrib="18" flow="648.00" occupancy="14.37" speed="9.34" length="7.00" nVehEntered="18"/>
    <interval begin="16300.00" end="16400.00" id="l3" nVehContrib="16" flow="576.00" occupancy="10.25" speed="10.93" length="7.00" nVehEntered="16"/>
    <interval begin="16400.00" end="16500.00" id="l3" nVehContrib="3" flow="108.00" occupancy="3.93" speed="5.34" length="7.00" nVehEntered="3"/>
    <interval begin="16500.00" end="16600.00" id="l3" nVehContrib="36" flow="1296.00" occupancy="25.61" speed="10.18" length="7.00" nVehEntered="37"/>
    <interval begin="16600.00" end="16700.00" id="l3" nVehContrib="17" flow="612.00" occupancy="10.71" speed="10.92" length="7.00" nVehEntered="16"/>
    <interval begin="16700.00" end="16800.00" id="l3" nVehContrib="2" flow="72.00" occupancy="1.28" speed="10.91" length="7.00" nVehEntered="2"/>
    <interval begin="16800.00" end="16900.00" id="l3" nVehContrib="27" flow="972.00" occupancy="19.71" speed="9.96" length="7.00" nVehEntered="27"/>
    <interval begin="16900.00" end="17000.00" id="l3" nVehContrib="10" flow="360.00" occupancy="8.48" speed="8.64" length="7.00" nVehEntered="10"/>
    <interval begin="17000.00" end="17100.00" id="l3" nVehContrib="12" flow="432.00" occupancy="7.74" speed="10.86" length="7.00" nVehEntered="12"/>
    <interval begin="17100.00" end="17200.00" id="l3" nVehContrib="0" flow="0.00" occupancy="0.00" speed="-1.00" length="-1.00" nVehEntered="0"/>
    <interval begin="17200.00" end="17300.00" id="l3" nVehContrib="0" flow="0.00" occupancy="0.00" speed="-1.00" length="-1.00" nVehEntered="0"/>
    <interval begin="17300.00" end="17400.00" id="l3" nVehContrib="2" flow="72.00" occupancy="1.89" speed="8.24" length="7.00" nVehEntered="2"/>
    <interval begin="17400.00" end="17500.00" id="l3" nVehContrib="2" flow="72.00" occupancy="2.35" speed="5.97" length="7.00" nVehEntered="2"/>
    <interval begin="17500.00" end="17600.00" id="l3" nVehContrib="16" flow="576.00" occupancy="12.31" speed="9.56" length="7.00" nVehEntered="16"/>
    <interval begin="17600.00" end="17700.00" id="l3" nVehContrib="0" flow="0.00" occupancy="0.00" speed="-1.00" length="-1.00" nVehEntered="0"/>
    <interval begin="17700.00" end="17800.00" id="l3" nVehContrib="46" flow="1656.00" occupancy="31.85" speed="10.33" length="7.00" nVehEntered="46"/>
    <interval begin="17800.00" end="17900.00" id="l3" nVehContrib="12" flow="432.00" occupancy="8.43" speed="10.37" length="7.00" nVehEntered="12"/>
    <interval begin="17900.00" end="18000.00" id="l3" nVehContrib="1" flow="36.00" occupancy="1.28" speed="5.48" length="7.00" nVehEntered="1"/>
    <interval begin="18000.00" end="18100.00" id="l3" nVehContrib="0" flow="0.00" occupancy="0.00" speed="-1.00" length="-1.00" nVehEntered="0"/>
    <interval begin="18100.00" end="18200.00" id="l3" nVehContrib="0" flow="0.00" occupancy="0.00" speed="-1.00" length="-1.00" nVehEntered="0"/>
    <interval begin="18200.00" end="18300.00" id="l3" nVehContrib="1" flow="36.00" occupancy="0.64" speed="10.90" length="7.00" nVehEntered="1"/>
    <interval begin="18300.00" end="18400.00" id="l3" nVehContrib="0" flow="0.00" occupancy="0.00" speed="-1.00" length="-1.00" nVehEntered="0"/>
    <interval begin="18400.00" end="18500.00" id="l3" nVehContrib="0" flow="0.00" occupancy="0.00" speed="-1.00" length="-1.00" nVehEntered="0"/>
    <interval begin="18500.00" end="18600.00" id="l3" nVehContrib="1" flow="36.00" occupancy="0.64" speed="10.90" length="7.00" nVehEntered="1"/>
    <interval begin="18600.00" end="18700.00" id="l3" nVehContrib="0" flow="0.00" occupancy="0.00" speed="-1.00" length="-1.00" nVehEntered="0"/>
    <interval begin="18700.00" end="18800.00" id="l3" nVehContrib="42" flow="1512.00" occupancy="29.01" speed="10.36" length="7.00" nVehEntered="42"/>
    <interval begin="18800.00" end="18900.00" id="l3" nVehContrib="11" flow="396.00" occupancy="7.14" speed="10.80" length="7.00" nVehEntered="11"/>
    <interval begin="18900.00" end="19000.00" id="l3" nVehContrib="0" flow="0.00" occupancy="0.00" speed="-1.00" length="-1.00" nVehEntered="0"/>
    <interval begin="19000.00" end="19100.00" id="l3" nVehContrib="0" flow="0.00" occupancy="0.00" speed="-1.00" length="-1.00" nVehEntered="0"/>
    <interval begin="19100.00" end="19200.00" id="l3" nVehContrib="0" flow="0.00" occupancy="0.00" speed="-1.00" length="-1.00" nVehEntered="0"/>
    <interval begin="19200.00" end="19300.00" id="l3" nVehContrib="0" flow="0.00" occupancy="0.00" speed="-1.00" length="-1.00" nVehEntered="0"/>
    <interval begin="19300.00" end="19400.00" id="l3" nVehContrib="1" flow="36.00" occupancy="0.65" speed="10.85" length="7.00" nVehEntered="1"/>
    <interval begin="19400.00" end="19500.00" id="l3" nVehContrib="16" flow="576.00" occupancy="12.19" speed="9.54" length="7.00" nVehEntered="16"/>
    <interval begin="19500.00" end="19600.00" id="l3" nVehContrib="0" flow="0.00" occupancy="0.00" speed="-1.00" length="-1.00" nVehEntered="0"/>
    <interval begin="19600.00" end="19700.00" id="l3" nVehContrib="0" flow="0.00" occupancy="0.00" speed="-1.00" length="-1.00" nVehEntered="0"/>
    <interval begin="19700.00" end="19800.00" id="l3" nVehContrib="1" flow="36.00" occupancy="1.27" speed="5.49" length="7.00" nVehEntered="1"/>