<?xml version="1.0" encoding="UTF-8"?>

<!-- generated on Fri Sep  8 11:22:18 2017 by SUMO gui Version 0.30.0
<?xml version="1.0" encoding="UTF-8"?>

<configuration xmlns:xsi="http://www.w3.org/2001/XMLSchema-instance" xsi:noNamespaceSchemaLocation="http://sumo.dlr.de/xsd/sumoConfiguration.xsd">

    <input>
        <net-file value="data/cross.net.xml"/>
        <route-files value="data/cross.rou.xml"/>
        <additional-files value="data/cross1.det.xml"/>
    </input>

    <output>
        <tripinfo-output value="tripinfo.xml"/>
    </output>

    <time>
        <begin value="0"/>
    </time>

    <report>
        <verbose value="true"/>
        <no-step-log value="true"/>
    </report>

    <traci_server>
        <remote-port value="49558"/>
    </traci_server>

    <gui_only>
        <gui-settings-file value="data/gui.settings.xml"/>
    </gui_only>

</configuration>
-->

<detector xmlns:xsi="http://www.w3.org/2001/XMLSchema-instance" xsi:noNamespaceSchemaLocation="http://sumo.dlr.de/xsd/det_e1_file.xsd">
    <interval begin="0.00" end="100.00" id="l1" nVehContrib="1" flow="36.00" occupancy="1.29" speed="5.43" length="7.00" nVehEntered="1"/>
    <interval begin="100.00" end="200.00" id="l1" nVehContrib="3" flow="108.00" occupancy="4.13" speed="5.08" length="7.00" nVehEntered="3"/>
    <interval begin="200.00" end="300.00" id="l1" nVehContrib="4" flow="144.00" occupancy="5.04" speed="5.59" length="7.00" nVehEntered="4"/>
    <interval begin="300.00" end="400.00" id="l1" nVehContrib="5" flow="180.00" occupancy="6.51" speed="5.39" length="7.00" nVehEntered="5"/>
    <interval begin="400.00" end="500.00" id="l1" nVehContrib="4" flow="144.00" occupancy="5.06" speed="5.59" length="7.00" nVehEntered="4"/>
    <interval begin="500.00" end="600.00" id="l1" nVehContrib="7" flow="252.00" occupancy="8.81" speed="5.60" length="7.00" nVehEntered="7"/>
    <interval begin="600.00" end="700.00" id="l1" nVehContrib="5" flow="180.00" occupancy="6.53" speed="5.37" length="7.00" nVehEntered="5"/>
    <interval begin="700.00" end="800.00" id="l1" nVehContrib="4" flow="144.00" occupancy="5.35" speed="5.24" length="7.00" nVehEntered="4"/>
    <interval begin="800.00" end="900.00" id="l1" nVehContrib="5" flow="180.00" occupancy="6.26" speed="5.62" length="7.00" nVehEntered="5"/>
    <interval begin="900.00" end="1000.00" id="l1" nVehContrib="6" flow="216.00" occupancy="7.85" speed="5.37" length="7.00" nVehEntered="6"/>
    <interval begin="1000.00" end="1100.00" id="l1" nVehContrib="4" flow="144.00" occupancy="5.12" speed="5.51" length="7.00" nVehEntered="4"/>
    <interval begin="1100.00" end="1200.00" id="l1" nVehContrib="6" flow="216.00" occupancy="7.40" speed="5.73" length="7.00" nVehEntered="6"/>
    <interval begin="1200.00" end="1300.00" id="l1" nVehContrib="3" flow="108.00" occupancy="4.74" speed="5.29" length="7.00" nVehEntered="4"/>
    <interval begin="1300.00" end="1400.00" id="l1" nVehContrib="6" flow="216.00" occupancy="6.82" speed="5.55" length="7.00" nVehEntered="5"/>
    <interval begin="1400.00" end="1500.00" id="l1" nVehContrib="4" flow="144.00" occupancy="5.19" speed="5.41" length="7.00" nVehEntered="4"/>
    <interval begin="1500.00" end="1600.00" id="l1" nVehContrib="6" flow="216.00" occupancy="7.94" speed="5.29" length="7.00" nVehEntered="6"/>
    <interval begin="1600.00" end="1700.00" id="l1" nVehContrib="3" flow="108.00" occupancy="3.64" speed="5.78" length="7.00" nVehEntered="3"/>
    <interval begin="1700.00" end="1800.00" id="l1" nVehContrib="5" flow="180.00" occupancy="6.73" speed="5.38" length="7.00" nVehEntered="6"/>
    <interval begin="1800.00" end="1900.00" id="l1" nVehContrib="5" flow="180.00" occupancy="5.98" speed="5.69" length="7.00" nVehEntered="4"/>
    <interval begin="1900.00" end="2000.00" id="l1" nVehContrib="5" flow="180.00" occupancy="6.54" speed="5.36" length="7.00" nVehEntered="5"/>
    <interval begin="2000.00" end="2100.00" id="l1" nVehContrib="4" flow="144.00" occupancy="5.15" speed="5.47" length="7.00" nVehEntered="4"/>
    <interval begin="2100.00" end="2200.00" id="l1" nVehContrib="4" flow="144.00" occupancy="5.29" speed="5.30" length="7.00" nVehEntered="4"/>
    <interval begin="2200.00" end="2300.00" id="l1" nVehContrib="7" flow="252.00" occupancy="8.02" speed="6.24" length="7.00" nVehEntered="7"/>
    <interval begin="2300.00" end="2400.00" id="l1" nVehContrib="5" flow="180.00" occupancy="6.19" speed="5.68" length="7.00" nVehEntered="5"/>
    <interval begin="2400.00" end="2500.00" id="l1" nVehContrib="4" flow="144.00" occupancy="5.09" speed="5.50" length="7.00" nVehEntered="4"/>
    <interval begin="2500.00" end="2600.00" id="l1" nVehContrib="5" flow="180.00" occupancy="6.75" speed="5.20" length="7.00" nVehEntered="5"/>
    <interval begin="2600.00" end="2700.00" id="l1" nVehContrib="4" flow="144.00" occupancy="5.33" speed="5.26" length="7.00" nVehEntered="4"/>
    <interval begin="2700.00" end="2800.00" id="l1" nVehContrib="4" flow="144.00" occupancy="5.02" speed="5.60" length="7.00" nVehEntered="4"/>
    <interval begin="2800.00" end="2900.00" id="l1" nVehContrib="4" flow="144.00" occupancy="5.34" speed="5.25" length="7.00" nVehEntered="4"/>
    <interval begin="2900.00" end="3000.00" id="l1" nVehContrib="4" flow="144.00" occupancy="5.18" speed="5.40" length="7.00" nVehEntered="4"/>
    <interval begin="3000.00" end="3100.00" id="l1" nVehContrib="3" flow="108.00" occupancy="3.96" speed="5.30" length="7.00" nVehEntered="3"/>
    <interval begin="3100.00" end="3200.00" id="l1" nVehContrib="6" flow="216.00" occupancy="7.65" speed="5.51" length="7.00" nVehEntered="6"/>
    <interval begin="3200.00" end="3300.00" id="l1" nVehContrib="8" flow="288.00" occupancy="10.00" speed="5.70" length="7.00" nVehEntered="8"/>
    <interval begin="3300.00" end="3400.00" id="l1" nVehContrib="6" flow="216.00" occupancy="7.42" speed="5.70" length="7.00" nVehEntered="6"/>
    <interval begin="3400.00" end="3500.00" id="l1" nVehContrib="5" flow="180.00" occupancy="6.48" speed="5.43" length="7.00" nVehEntered="5"/>
    <interval begin="3500.00" end="3600.00" id="l1" nVehContrib="6" flow="216.00" occupancy="8.16" speed="5.73" length="7.00" nVehEntered="7"/>
    <interval begin="3600.00" end="3700.00" id="l1" nVehContrib="5" flow="180.00" occupancy="5.16" speed="6.76" length="7.00" nVehEntered="5"/>
    <interval begin="3700.00" end="3800.00" id="l1" nVehContrib="6" flow="216.00" occupancy="7.28" speed="5.40" length="7.00" nVehEntered="5"/>
    <interval begin="3800.00" end="3900.00" id="l1" nVehContrib="8" flow="288.00" occupancy="10.00" speed="5.66" length="7.00" nVehEntered="8"/>
    <interval begin="3900.00" end="4000.00" id="l1" nVehContrib="4" flow="144.00" occupancy="5.31" speed="5.27" length="7.00" nVehEntered="4"/>
    <interval begin="4000.00" end="4100.00" id="l1" nVehContrib="3" flow="108.00" occupancy="3.82" speed="5.50" length="7.00" nVehEntered="3"/>
    <interval begin="4100.00" end="4200.00" id="l1" nVehContrib="6" flow="216.00" occupancy="7.40" speed="5.75" length="7.00" nVehEntered="6"/>
    <interval begin="4200.00" end="4300.00" id="l1" nVehContrib="4" flow="144.00" occupancy="5.29" speed="5.33" length="7.00" nVehEntered="4"/>
    <interval begin="4300.00" end="4400.00" id="l1" nVehContrib="6" flow="216.00" occupancy="7.56" speed="5.62" length="7.00" nVehEntered="6"/>
    <interval begin="4400.00" end="4500.00" id="l1" nVehContrib="5" flow="180.00" occupancy="6.61" speed="5.30" length="7.00" nVehEntered="5"/>
    <interval begin="4500.00" end="4600.00" id="l1" nVehContrib="4" flow="144.00" occupancy="5.09" speed="5.51" length="7.00" nVehEntered="4"/>
    <interval begin="4600.00" end="4700.00" id="l1" nVehContrib="4" flow="144.00" occupancy="5.34" speed="5.25" length="7.00" nVehEntered="4"/>
    <interval begin="4700.00" end="4800.00" id="l1" nVehContrib="9" flow="324.00" occupancy="10.18" speed="6.38" length="7.00" nVehEntered="9"/>
    <interval begin="4800.00" end="4900.00" id="l1" nVehContrib="4" flow="144.00" occupancy="4.89" speed="5.75" length="7.00" nVehEntered="4"/>
    <interval begin="4900.00" end="5000.00" id="l1" nVehContrib="5" flow="180.00" occupancy="6.53" speed="5.41" length="7.00" nVehEntered="5"/>
    <interval begin="5000.00" end="5100.00" id="l1" nVehContrib="3" flow="108.00" occupancy="3.93" speed="5.34" length="7.00" nVehEntered="3"/>
    <interval begin="5100.00" end="5200.00" id="l1" nVehContrib="3" flow="108.00" occupancy="4.02" speed="5.23" length="7.00" nVehEntered="3"/>
    <interval begin="5200.00" end="5300.00" id="l1" nVehContrib="6" flow="216.00" occupancy="7.68" speed="5.49" length="7.00" nVehEntered="6"/>
    <interval begin="5300.00" end="5400.00" id="l1" nVehContrib="4" flow="144.00" occupancy="5.30" speed="5.29" length="7.00" nVehEntered="4"/>
    <interval begin="5400.00" end="5500.00" id="l1" nVehContrib="6" flow="216.00" occupancy="7.80" speed="5.39" length="7.00" nVehEntered="6"/>
    <interval begin="5500.00" end="5600.00" id="l1" nVehContrib="1" flow="36.00" occupancy="1.35" speed="5.20" length="7.00" nVehEntered="1"/>
    <in