<?xml version="1.0" encoding="UTF-8"?>

<!-- generated on Fri 08 Sep 2017 10:34:32 AM CEST by SUMO gui Version 0.30.0
<?xml version="1.0" encoding="UTF-8"?>

<configuration xmlns:xsi="http://www.w3.org/2001/XMLSchema-instance" xsi:noNamespaceSchemaLocation="http://sumo.dlr.de/xsd/sumoConfiguration.xsd">

    <input>
        <net-file value="data/cross.net.xml"/>
        <route-files value="data/cross.rou.xml"/>
        <additional-files value="data/cross1.det.xml"/>
    </input>

    <output>
        <tripinfo-output value="tripinfo.xml"/>
    </output>

    <time>
        <begin value="0"/>
    </time>

    <report>
        <verbose value="true"/>
        <no-step-log value="true"/>
    </report>

    <traci_server>
        <remote-port value="58073"/>
    </traci_server>

    <gui_only>
        <gui-settings-file value="data/gui.settings.xml"/>
    </gui_only>

</configuration>
-->

<detector xmlns:xsi="http://www.w3.org/2001/XMLSchema-instance" xsi:noNamespaceSchemaLocation="http://sumo.dlr.de/xsd/det_e1_file.xsd">
    <interval begin="0.00" end="100.00" id="l2" nVehContrib="2" flow="72.00" occupancy="1.41" speed="8.13" length="5.00" nVehEntered="2"/>
    <interval begin="100.00" end="200.00" id="l2" nVehContrib="5" flow="180.00" occupancy="4.63" speed="5.41" length="5.00" nVehEntered="5"/>
    <interval begin="200.00" end="300.00" id="l2" nVehContrib="4" flow="144.00" occupancy="3.89" speed="5.14" length="5.00" nVehEntered="4"/>
    <interval begin="300.00" end="400.00" id="l2" nVehContrib="4" flow="144.00" occupancy="3.91" speed="5.12" length="5.00" nVehEntered="4"/>
    <interval begin="400.00" end="500.00" id="l2" nVehContrib="5" flow="180.00" occupancy="4.84" speed="5.17" length="5.00" nVehEntered="5"/>
    <interval begin="500.00" end="600.00" id="l2" nVehContrib="4" flow="144.00" occupancy="3.87" speed="5.18" length="5.00" nVehEntered="4"/>
    <interval begin="600.00" end="700.00" id="l2" nVehContrib="4" flow="144.00" occupancy="3.85" speed="5.20" length="5.00" nVehEntered="4"/>
    <interval begin="700.00" end="800.00" id="l2" nVehContrib="8" flow="288.00" occupancy="7.08" speed="5.70" length="5.00" nVehEntered="8"/>
    <interval begin="800.00" end="900.00" id="l2" nVehContrib="3" flow="108.00" occupancy="3.52" speed="5.35" length="5.00" nVehEntered="4"/>
    <interval begin="900.00" end="1000.00" id="l2" nVehContrib="8" flow="288.00" occupancy="6.54" speed="5.55" length="5.00" nVehEntered="7"/>
    <interval begin="1000.00" end="1100.00" id="l2" nVehContrib="4" flow="144.00" occupancy="3.82" speed="5.24" length="5.00" nVehEntered="4"/>
    <interval begin="1100.00" end="1200.00" id="l2" nVehContrib="4" flow="144.00" occupancy="4.00" speed="5.01" length="5.00" nVehEntered="4"/>
    <interval begin="1200.00" end="1300.00" id="l2" nVehContrib="4" flow="144.00" occupancy="4.25" speed="5.23" length="5.00" nVehEntered="5"/>
    <interval begin="1300.00" end="1400.00" id="l2" nVehContrib="5" flow="180.00" occupancy="4.53" speed="5.06" length="5.00" nVehEntered="4"/>
    <interval begin="1400.00" end="1500.00" id="l2" nVehContrib="5" flow="180.00" occupancy="4.61" speed="5.45" length="5.00" nVehEntered="5"/>
    <interval begin="1500.00" end="1600.00" id="l2" nVehContrib="5" flow="180.00" occupancy="4.78" speed="5.23" length="5.00" nVehEntered="5"/>
    <interval begin="1600.00" end="1700.00" id="l2" nVehContrib="5" flow="180.00" occupancy="4.70" speed="5.32" length="5.00" nVehEntered="5"/>
    <interval begin="1700.00" end="1800.00" id="l2" nVehContrib="7" flow="252.00" occupancy="6.25" speed="5.64" length="5.00" nVehEntered="7"/>
    <interval begin="1800.00" end="1900.00" id="l2" nVehContrib="7" flow="252.00" occupancy="5.93" speed="6.01" length="5.00" nVehEntered="7"/>
    <interval begin="1900.00" end="2000.00" id="l2" nVehContrib="5" flow="180.00" occupancy="4.87" speed="5.14" length="5.00" nVehEntered="5"/>
    <interval begin="2000.00" end="2100.00" id="l2" nVehContrib="3" flow="108.00" occupancy="2.89" speed="5.19" length="5.00" nVehEntered="3"/>
    <interval begin="2100.00" end="2200.00" id="l2" nVehContrib="5" flow="180.00" occupancy="4.78" speed="5.23" length="5.00" nVehEntered="5"/>
    <interval begin="2200.00" end="2300.00" id="l2" nVehContrib="6" flow="216.00" occupancy="5.72" speed="5.24" length="5.00" nVehEntered="6"/>
    <interval begin="2300.00" end="2400.00" id="l2" nVehContrib="2" flow="72.00" occupancy="2.44" speed="5.37" length="5.00" nVehEntered="3"/>
    <interval begin="2400.00" end="2500.00" id="l2" nVehContrib="5" flow="180.00" occupancy="4.09" speed="5.38" length="5.00" nVehEntered="4"/>
    <interval begin="2500.00" end="2600.00" id="l2" nVehContrib="4" flow="144.00" occupancy="3.82" speed="5.25" length="5.00" nVehEntered="4"/>
    <interval begin="2600.00" end="2700.00" id="l2" nVehContrib="5" flow="180.00" occupancy="4.78" speed="5.23" length="5.00" nVehEntered="5"/>
    <interval begin="2700.00" end="2800.00" id="l2" nVehContrib="5" flow="180.00" occupancy="4.91" speed="5.10" length="5.00" nVehEntered="5"/>
    <interval begin="2800.00" end="2900.00" id="l2" nVehContrib="5" flow="180.00" occupancy="4.74" speed="5.28" length="5.00" nVehEntered="5"/>
    <interval begin="2900.00" end="3000.00" id="l2" nVehContrib="5" flow="180.00" occupancy="4.64" speed="5.39" length="5.00" nVehEntered="5"/>
    <interval begin="3000.00" end="3100.00" id="l2" nVehContrib="3" flow="108.00" occupancy="2.97" speed="5.07" length="5.00" nVehEntered="3"/>
    <interval begin="3100.00" end="3200.00" id="l2" nVehContrib="11" flow="396.00" occupancy="8.50" speed="6.84" length="5.00" nVehEntered="11"/>
    <interval begin="3200.00" end="3300.00" id="l2" nVehContrib="5" flow="180.00" occupancy="4.65" speed="5.39" length="5.00" nVehEntered="5"/>
    <interval begin="3300.00" end="3400.00" id="l2" nVehContrib="8" flow="288.00" occupancy="7.16" speed="5.65" length="5.00" nVehEntered="8"/>
    <interval begin="3400.00" end="3500.00" id="l2" nVehContrib="6" flow="216.00" occupancy="5.69" speed="5.30" length="5.00" nVehEntered="6"/>
    <interval begin="3500.00" end="3600.00" id="l2" nVehContrib="3" flow="108.00" occupancy="2.95" speed="5.10" length="5.00" nVehEntered="3"/>
    <interval begin="3600.00" end="3700.00" id="l2" nVehContrib="4" flow="144.00" occupancy="3.80" speed="5.28" length="5.00" nVehEntered="4"/>
    <interval begin="3700.00" end="3800.00" id="l2" nVehContrib="7" flow="252.00" occupancy="6.05" speed="5.88" length="5.00" nVehEntered="7"/>
    <interval begin="3800.00" end="3900.00" id="l2" nVehContrib="4" flow="144.00" occupancy="3.84" speed="5.23" length="5.00" nVehEntered="4"/>
    <interval begin="3900.00" end="4000.00" id="l2" nVehContrib="6" flow="216.00" occupancy="5.46" speed="5.55" length="5.00" nVehEntered="6"/>
    <interval begin="4000.00" end="4100.00" id="l2" nVehContrib="5" flow="180.00" occupancy="4.73" speed="5.31" length="5.00" nVehEntered="5"/>
    <interval begin="4100.00" end="4200.00" id="l2" nVehContrib="5" flow="180.00" occupancy="4.65" speed="5.40" length="5.00" nVehEntered="5"/>
    <interval begin="4200.00" end="4300.00" id="l2" nVehContrib="5" flow="180.00" occupancy="4.85" speed="5.16" length="5.00" nVehEntered="5"/>
    <interval begin="4300.00" end="4400.00" id="l2" nVehContrib="7" flow="252.00" occupancy="6.49" speed="5.42" length="5.00" nVehEntered="7"/>
    <interval begin="4400.00" end="4500.00" id="l2" nVehContrib="5" flow="180.00" occupancy="4.60" speed="5.46" length="5.00" nVehEntered="5"/>
    <interval begin="4500.00" end="4600.00" id="l2" nVehContrib="4" flow="144.00" occupancy="3.85" speed="5.20" length="5.00" nVehEntered="4"/>
    <interval begin="4600.00" end="4700.00" id="l2" nVehContrib="7" flow="252.00" occupancy="6.21" speed="5.72" length="5.00" nVehEntered="7"/>
    <interval begin="4700.00" end="4800.00" id="l2" nVehContrib="5" flow="180.00" occupancy="4.81" speed="5.59" length="5.00" nVehEntered="6"/>
    <interval begin="4800.00" end="4900.00" id="l2" nVehContrib="7" flow="252.00" occupancy="6.25" speed="5.37" length="5.00" nVehEntered="6"/>
    <interval begin="4900.00" end="5000.00" id="l2" nVehContrib="10" flow="360.00" occupancy="8.39" speed="6.07" length="5.00" nVehEntered="10"/>
    <interval begin="5000.00" end="5100.00" id="l2" nVehContrib="11" flow="396.00" occupancy="8.94" speed="6.24" length="5.00" nVehEntered="11"/>
    <interval begin="5100.00" end="5200.00" id="l2" nVehContrib="4" flow="144.00" occupancy="3.82" speed="5.25" length="5.00" nVehEntered="4"/>
    <interval begin="5200.00" end="5300.00" id="l2" nVehContrib="4" flow="144.00" occupancy="3.89" speed="5.17" length="5.00" nVehEntered="4"/>
    <interval begin="5300.00" end="5400.00" id="l2" nVehContrib="4" flow="144.00" occupancy="3.47" speed="5.85" length="5.00" nVehEntered="4"/>
    <interval begin="5400.00" end="5500.00" id="l2" nVehContrib="4" flow="144.00" occupancy="3.87" speed="5.17" length="5.00" nVehEntered="4"/>
    <interval begin="5500.00" end="5600.00" id="l2" nVehContrib="6" flow="216.00" occupancy="5.58" speed="5.38" length="5.00" nVehEntered="6"/>
    <interval begin="5600.00" end="5700.00" id="l2" nVehContrib="9" flow="324.00" occupancy="7.04" speed="6.64" length="5.00" nVehEntered="9"/>
    <interval begin="5700.00" end="5800.00" id="l2" nVehContrib="5" flow="180.00" occupancy="4.57" speed="5.49" length="5.00" nVehEntered="5"/>
    <interval begin="5800.00" end="5900.00" id="l2" nVehContrib="11" flow="396.00" occupancy="9.16" speed="6.18" length="5.00" nVehEntered="11"/>
    <interval begin="5900.00" end="6000.00" id="l2" nVehContrib="13" flow="468.00" occupancy="8.53" speed="8.17" length="5.00" nVehEntered="13"/>
    <interval begin="6000.00" end="6100.00" id="l2" nVehContrib="12" flow="432.00" occupancy="9.27" speed="6.89" length="5.00" nVehEntered="13"/>
    <interval begin="6100.00" end="6200.00" id="l2" nVehContrib="5" flow="180.00" occupancy="4.51" speed="5.27" length="5.00" nVehEntered="4"/>
    <interval begin="6200.00" end="6300.00" id="l2" nVehContrib="7" flow="252.00" occupancy="5.77" speed="6.14" length="5.00" nVehEntered="7"/>
    <interval begin="6300.00" end="6400.00" id="l2" nVehContrib="5" flow="180.00" occupancy="4.52" speed="5.56" length="5.00" nVehEntered="5"/>
    <interval begin="6400.00" end="6500.00" id="l2" nVehContrib="3" flow="108.00" occupancy="3.00" speed="5.00" length="5.00" nVehEntered="3"/>
    <interval begin="6500.00" end="6600.00" id="l2" nVehContrib="10" flow="360.00" occupancy="9.09" speed="5.71" length="5.00" nVehEntered="11"/>
    <interval begin="6600.00" end="6700.00" id="l2" nVehContrib="7" flow="252.00" occupancy="5.38" speed="6.50" length="5.00" nVehEntered="6"/>
    <interval begin="6700.00" end="6800.00" id="l2" nVehContrib="4" flow="144.00" occupancy="3.52" speed="5.74" length="5.00" nVehEntered="4"/>
    <interval begin="6800.00" end="6900.00" id="l2" nVehContrib="4" flow="144.00" occupancy="3.77" speed="5.33" length="5.00" nVehEntered="4"/>
    <interval begin="6900.00" end="7000.00" id="l2" nVehContrib="6" flow="216.00" occupancy="5.60" speed="5.37" length="5.00" nVehEntered="6"/>
    <interval begin="7000.00" end="7100.00" id="l2" nVehContrib="4" flow="144.00" occupancy="3.83" speed="5.23" length="5.00" nVehEntered="4"/>
    <interval begin="7100.00" end="7200.00" id="l2" nVehContrib="3" flow="108.00" occupancy="2.84" speed="5.29" length="5.00" nVehEntered="3"/>
    <interval begin="7200.00" end="7300.00" id="l2" nVehContrib="7" flow="252.00" occupancy="5.09" speed="7.00" length="5.00" nVehEntered="7"/>
    <interval begin="7300.00" end="7400.00" id="l2" nVehContrib="9" flow="324.00" occupancy="7.72" speed="5.93" length="5.00" nVehEntered="9"/>
    <interval begin="7400.00" end="7500.00" id="l2" nVehContrib="18" flow="648.00" occupancy="13.50" speed="6.97" length="5.00" nVehEntered="18"/>
    <interval begin="7500.00" end="7600.00" id="l2" nVehContrib="9" flow="324.00" occupancy="7.21" speed="6.34" length="5.00" nVehEntered="9"/>
    <interval begin="7600.00" end="7700.00" id="l2" nVehContrib="11" flow="396.00" occupancy="8.41" speed="6.85" length="5.00" nVehEntered="11"/>
    <interval begin="7700.00" end="7800.00" id="l2" nVehContrib="13" flow="468.00" occupancy="10.72" speed="6.20" length="5.00" nVehEntered="13"/>
    <interval begin="7800.00" end="7900.00" id="l2" nVehContrib="4" flow="144.00" occupancy="3.17" speed="6.51" length="5.00" nVehEntered="4"/>
    <interval begin="7900.00" end="8000.00" id="l2" nVehContrib="6" flow="216.00" occupancy="5.14" speed="5.91" length="5.00" nVehEntered="6"/>
    <interval begin="8000.00" end="8100.00" id="l2" nVehContrib="35" flow="1260.00" occupancy="18.30" speed="9.92" length="5.00" nVehEntered="35"/>
    <interval begin="8100.00" end="8200.00" id="l2" nVehContrib="2" flow="72.00" occupancy="1.72" speed="5.83" length="5.00" nVehEntered="2"/>
    <interval begin="8200.00" end="8300.00" id="l2" nVehContrib="12" flow="432.00" occupancy="8.94" speed="7.06" length="5.00" nVehEntered="12"/>
    <interval begin="8300.00" end="8400.00" id="l2" nVehContrib="13" flow="468.00" occupancy="9.16" speed="7.43" length="5.00" nVehEntered="13"/>
    <interval begin="8400.00" end="8500.00" id="l2" nVehContrib="13" flow="468.00" occupancy="9.11" speed="7.47" length="5.00" nVehEntered="13"/>
    <interval begin="8500.00" end="8600.00" id="l2" nVehContrib="6" flow="216.00" occupancy="5.04" speed="6.03" length="5.00" nVehEntered="6"/>
    <interval begin="8600.00" end="8700.00" id="l2" nVehContrib="18" flow="648.00" occupancy="11.59" speed="8.23" length="5.00" nVehEntered="18"/>
    <interval begin="8700.00" end="8800.00" id="l2" nVehContrib="0" flow="0.00" occupancy="0.00" speed="-1.00" length="-1.00" nVehEntered="0"/>
    <interval begin="8800.00" end="8900.00" id="l2" nVehContrib="5" flow="180.00" occupancy="4.36" speed="5.76" length="5.00" nVehEntered="5"/>
    <interval begin="8900.00" end="9000.00" id="l2" nVehContrib="14" flow="504.00" occupancy="9.45" speed="7.75" length="5.00" nVehEntered="14"/>
    <interval begin="9000.00" end="9100.00" id="l2" nVehContrib="22" flow="792.00" occupancy="12.48" speed="9.31" length="5.00" nVehEntered="22"/>
    <interval begin="9100.00" end="9200.00" id="l2" nVehContrib="15" flow="540.00" occupancy="10.34" speed="7.68" length="5.00" nVehEntered="15"/>
    <interval begin="9200.00" end="9300.00" id="l2" nVehContrib="1" flow="36.00" occupancy="0.94" speed="5.31" length="5.00" nVehEntered="1"/>
    <interval begin="9300.00" end="9400.00" id="l2" nVehContrib="42" flow="1512.00" occupancy="21.30" speed="10.17" length="5.00" nVehEntered="42"/>
    <interval begin="9400.00" end="9500.00" id="l2" nVehContrib="22" flow="792.00" occupancy="12.63" speed="9.23" length="5.00" nVehEntered="22"/>
    <interval begin="9500.00" end="9600.00" id="l2" nVehContrib="33" flow="1188.00" occupancy="16.91" speed="10.13" length="5.00" nVehEntered="33"/>
    <interval begin="9600.00" end="9700.00" id="l2" nVehContrib="17" flow="612.00" occupancy="10.04" speed="8.85" length="5.00" nVehEntered="17"/>
    <interval begin="9700.00" end="9800.00" id="l2" nVehContrib="20" flow="720.00" occupancy="11.11" speed="9.44" length="5.00" nVehEntered="20"/>
    <interval begin="9800.00" end="9900.00" id="l2" nVehContrib="5" flow="180.00" occupancy="2.28" speed="10.97" length="5.00" nVehEntered="5"/>
    <interval begin="9900.00" end="10000.00" id="l2" nVehContrib="0" flow="0.00" occupancy="0.00" speed="-1.00" length="-1.00" nVehEntered="0"/>
    <interval begin="10000.00" end="10100.00" id="l2" nVehContrib="18" flow="648.00" occupancy="10.38" speed="9.11" length="5.00" nVehEntered="18"/>
    <interval begin="10100.00" end="10200.00" id="l2" nVehContrib="15" flow="540.00" occupancy="9.16" speed="8.57" length="5.00" nVehEntered="15"/>
    <interval begin="10200.00" end="10300.00" id="l2" nVehContrib="1" flow="36.00" occupancy="0.95" speed="5.29" length="5.00" nVehEntered="1"/>
    <interval begin="10300.00" end="10400.00" id="l2" nVehContrib="3" flow="108.00" occupancy="2.53" speed="5.99" length="5.00" nVehEntered="3"/>
    <interval begin="10400.00" end="10500.00" id="l2" nVehContrib="0" flow="0.00" occupancy="0.00" speed="-1.00" length="-1.00" nVehEntered="0"/>
    <interval begin="10500.00" end="10600.00" id="l2" nVehContrib="21" flow="756.00" occupancy="11.61" speed="9.52" length="5.00" nVehEntered="22"/>
    <interval begin="10600.00" end="10700.00" id="l2" nVehContrib="49" flow="1764.00" occupancy="22.54" speed="10.85" length="5.00" nVehEntered="48"/>
    <interval begin="10700.00" end="10800.00" id="l2" nVehContrib="9" flow="324.00" occupancy="4.13" speed="10.91" length="5.00" nVehEntered="9"/>
    <interval begin="10800.00" end="10900.00" id="l2" nVehContrib="28" flow="1008.00" occupancy="14.81" speed="9.82" length="5.00" nVehEntered="28"/>
    <interval begin="10900.00" end="11000.00" id="l2" nVehContrib="17" flow="612.00" occupancy="7.76" speed="10.96" length="5.00" nVehEntered="17"/>
    <interval begin="11000.00" end="11100.00" id="l2" nVehContrib="19" flow="684.00" occupancy="8.73" speed="10.88" length="5.00" nVehEntered="19"/>
    <interval begin="11100.00" end="11200.00" id="l2" nVehContrib="15" flow="540.00" occupancy="6.88" speed="10.90" length="5.00" nVehEntered="15"/>
    <interval begin="11200.00" end="11300.00" id="l2" nVehContrib="23" flow="828.00" occupancy="12.48" speed="9.63" length="5.00" nVehEntered="23"/>
    <interval begin="11300.00" end="11400.00" id="l2" nVehContrib="14" flow="504.00" occupancy="8.68" speed="8.81" length="5.00" nVehEntered="15"/>
    <interval begin="11400.00" end="11500.00" id="l2" nVehContrib="22" flow="792.00" occupancy="9.85" speed="10.84" length="5.00" nVehEntered="21"/>
    <interval begin="11500.00" end="11600.00" id="l2" nVehContrib="2" flow="72.00" occupancy="1.82" speed="5.53" length="5.00" nVehEntered="2"/>
    <interval begin="11600.00" end="11700.00" id="l2" nVehContrib="36" flow="1296.00" occupancy="18.59" speed="10.06" length="5.00" nVehEntered="36"/>
    <interval begin="11700.00" end="11800.00" id="l2" nVehContrib="16" flow="576.00" occupancy="7.30" speed="10.96" length="5.00" nVehEntered="16"/>
    <interval begin="11800.00" end="11900.00" id="l2" nVehContrib="0" flow="0.00" occupancy="0.00" speed="-1.00" length="-1.00" nVehEntered="0"/>
    <interval begin="11900.00" end="12000.00" id="l2" nVehContrib="0" flow="0.00" occupancy="0.00" speed="-1.00" length="-1.00" nVehEntered="0"/>
    <interval begin="12000.00" end="12100.00" id="l2" nVehContrib="20" flow="720.00" occupancy="11.24" speed="9.36" length="5.00" nVehEntered="20"/>
    <interval begin="12100.00" end="12200.00" id="l2" nVehContrib="0" flow="0.00" occupancy="0.00" speed="-1.00" length="-1.00" nVehEntered="0"/>
    <interval begin="12200.00" end="12300.00" id="l2" nVehContrib="30" flow="1080.00" occupancy="16.28" speed="9.79" length="5.00" nVehEntered="31"/>
    <interval begin="12300.00" end="12400.00" id="l2" nVehContrib="43" flow="1548.00" occupancy="19.52" speed="10.84" length="5.00" nVehEntered="42"/>
    <interval begin="12400.00" end="12500.00" id="l2" nVehContrib="17" flow="612.00" occupancy="7.78" speed="10.93" length="5.00" nVehEntered="17"/>
    <interval begin="12500.00" end="12600.00" id="l2" nVehContrib="11" flow="396.00" occupancy="5.13" speed="10.74" length="5.00" nVehEntered="11"/>
    <interval begin="12600.00" end="12700.00" id="l2" nVehContrib="14" flow="504.00" occupancy="8.60" speed="8.65" length="5.00" nVehEntered="14"/>
    <interval begin="12700.00" end="12800.00" id="l2" nVehContrib="28" flow="1008.00" occupancy="14.69" speed="9.99" length="5.00" nVehEntered="28"/>
    <interval begin="12800.00" end="12900.00" id="l2" nVehContrib="12" flow="432.00" occupancy="6.45" speed="9.96" length="5.00" nVehEntered="12"/>
    <interval begin="12900.00" end="13000.00" id="l2" nVehContrib="12" flow="432.00" occupancy="7.83" speed="8.37" length="5.00" nVehEntered="12"/>
    <interval begin="13000.00" end="13100.00" id="l2" nVehContrib="10" flow="360.00" occupancy="7.27" speed="7.71" length="5.00" nVehEntered="10"/>
    <interval begin="13100.00" end="13200.00" id="l2" nVehContrib="5" flow="180.00" occupancy="3.71" speed="6.95" length="5.00" nVehEntered="5"/>
    <interval begin="13200.00" end="13300.00" id="l2" nVehContrib="15" flow="540.00" occupancy="8.94" speed="8.90" length="5.00" nVehEntered="15"/>
    <interval begin="13300.00" end="13400.00" id="l2" nVehContrib="8" flow="288.00" occupancy="4.10" speed="10.08" length="5.00" nVehEntered="8"/>
    <interval begin="13400.00" end="13500.00" id="l2" nVehContrib="6" flow="216.00" occupancy="2.73" speed="10.99" length="5.00" nVehEntered="6"/>
    <interval begin="13500.00" end="13600.00" id="l2" nVehContrib="12" flow="432.00" occupancy="5.50" speed="10.92" length="5.00" nVehEntered="12"/>
    <interval begin="13600.00" end="13700.00" id="l2" nVehContrib="10" flow="360.00" occupancy="4.57" speed="10.95" length="5.00" nVehEntered="10"/>
    <interval begin="13700.00" end="13800.00" id="l2" nVehContrib="13" flow="468.00" occupancy="5.94" speed="10.94" length="5.00" nVehEntered="13"/>
    <interval begin="13800.00" end="13900.00" id="l2" nVehContrib="0" flow="0.00" occupancy="0.00" speed="-1.00" length="-1.00" nVehEntered="0"/>
    <interval begin="13900.00" end="14000.00" id="l2" nVehContrib="0" flow="0.00" occupancy="0.00" speed="-1.00" length="-1.00" nVehEntered="0"/>
    <interval begin="14000.00" end="14100.00" id="l2" nVehContrib="26" flow="936.00" occupancy="14.14" speed="9.62" length="5.00" nVehEntered="26"/>
    <interval begin="14100.00" end="14200.00" id="l2" nVehContrib="0" flow="0.00" occupancy="0.00" speed="-1.00" length="-1.00" nVehEntered="0"/>
    <interval begin="14200.00" end="14300.00" id="l2" nVehContrib="0" flow="0.00" occupancy="0.00" speed="-1.00" length="-1.00" nVehEntered="0"/>
    <interval begin="14300.00" end="14400.00" id="l2" nVehContrib="33" flow="1188.00" occupancy="17.05" speed="10.02" length="5.00" nVehEntered="33"/>
    <interval begin="14400.00" end="14500.00" id="l2" nVehContrib="0" flow="0.00" occupancy="0.00" speed="-1.00" length="-1.00" nVehEntered="0"/>
    <interval begin="14500.00" end="14600.00" id="l2" nVehContrib="0" flow="0.00" occupancy="0.00" speed="-1.00" length="-1.00" nVehEntered="0"/>
    <interval begin="14600.00" end="14700.00" id="l2" nVehContrib="11" flow="396.00" occupancy="7.09" speed="8.13" length="5.00" nVehEntered="11"/>
    <interval begin="14700.00" end="14800.00" id="l2" nVehContrib="24" flow="864.00" occupancy="12.44" speed="10.12" length="5.00" nVehEntered="24"/>
    <interval begin="14800.00" end="14900.00" id="l2" nVehContrib="12" flow="432.00" occupancy="5.99" speed="10.21" length="5.00" nVehEntered="12"/>
    <interval begin="14900.00" end="15000.00" id="l2" nVehContrib="9" flow="324.00" occupancy="5.10" speed="9.51" length="5.00" nVehEntered="9"/>
    <interval begin="15000.00" end="15100.00" id="l2" nVehContrib="3" flow="108.00" occupancy="1.37" speed="10.93" length="5.00" nVehEntered="3"/>
    <interval begin="15100.00" end="15200.00" id="l2" nVehContrib="20" flow="720.00" occupancy="11.28" speed="9.32" length="5.00" nVehEntered="20"/>
    <interval begin="15200.00" end="15300.00" id="l2" nVehContrib="12" flow="432.00" occupancy="5.52" speed="10.87" length="5.00" nVehEntered="12"/>
    <interval begin="15300.00" end="15400.00" id="l2" nVehContrib="6" flow="216.00" occupancy="2.74" speed="10.93" length="5.00" nVehEntered="6"/>
    <interval begin="15400.00" end="15500.00" id="l2" nVehContrib="0" flow="0.00" occupancy="0.00" speed="-1.00" length="-1.00" nVehEntered="0"/>
    <interval begin="15500.00" end="15600.00" id="l2" nVehContrib="0" flow="0.00" occupancy="0.00" speed="-1.00" length="-1.00" nVehEntered="0"/>
    <interval begin="15600.00" end="15700.00" id="l2" nVehContrib="30" flow="1080.00" occupancy="16.13" speed="9.82" length="5.00" nVehEntered="31"/>
    <interval begin="15700.00" end="15800.00" id="l2" nVehContrib="12" flow="432.00" occupancy="5.34" speed="10.83" length="5.00" nVehEntered="11"/>
    <interval begin="15800.00" end="15900.00" id="l2" nVehContrib="10" flow="360.00" occupancy="4.59" speed="10.90" length="5.00" nVehEntered="10"/>
    <interval begin="15900.00" end="16000.00" id="l2" nVehContrib="13" flow="468.00" occupancy="7.38" speed="9.39" length="5.00" nVehEntered="13"/>
    <interval begin="16000.00" end="16100.00" id="l2" nVehContrib="7" flow="252.00" occupancy="4.70" speed="8.18" length="5.00" nVehEntered="7"/>
    <interval begin="16100.00" end="16200.00" id="l2" nVehContrib="10" flow="360.00" occupancy="6.75" speed="7.93" length="5.00" nVehEntered="11"/>
    <interval begin="16200.00" end="16300.00" id="l2" nVehContrib="11" flow="396.00" occupancy="4.83" speed="10.88" length="5.00" nVehEntered="10"/>
    <interval begin="16300.00" end="16400.00" id="l2" nVehContrib="14" flow="504.00" occupancy="6.41" speed="10.92" length="5.00" nVehEntered="14"/>
    <interval begin="16400.00" end="16500.00" id="l2" nVehContrib="12" flow="432.00" occupancy="5.50" speed="10.92" length="5.00" nVehEntered="12"/>
    <interval begin="16500.00" end="16600.00" id="l2" nVehContrib="14" flow="504.00" occupancy="8.51" speed="8.61" length="5.00" nVehEntered="14"/>
    <interval begin="16600.00" end="16700.00" id="l2" nVehContrib="11" flow="396.00" occupancy="5.03" speed="10.95" length="5.00" nVehEntered="11"/>
    <interval begin="16700.00" end="16800.00" id="l2" nVehContrib="4" flow="144.00" occupancy="3.25" speed="6.25" length="5.00" nVehEntered="4"/>
    <interval begin="16800.00" end="16900.00" id="l2" nVehContrib="15" flow="540.00" occupancy="9.52" speed="8.22" length="5.00" nVehEntered="15"/>
    <interval begin="16900.00" end="17000.00" id="l2" nVehContrib="10" flow="360.00" occupancy="4.58" speed="10.93" length="5.00" nVehEntered="10"/>
    <interval begin="17000.00" end="17100.00" id="l2" nVehContrib="4" flow="144.00" occupancy="1.84" speed="10.87" length="5.00" nVehEntered="4"/>
    <interval begin="17100.00" end="17200.00" id="l2" nVehContrib="7" flow="252.00" occupancy="4.94" speed="7.24" length="5.00" nVehEntered="7"/>
    <interval begin="17200.00" end="17300.00" id="l2" nVehContrib="5" flow="180.00" occupancy="2.51" speed="10.00" length="5.00" nVehEntered="5"/>
    <interval begin="17300.00" end="17400.00" id="l2" nVehContrib="20" flow="720.00" occupancy="12.01" speed="8.90" length="5.00" nVehEntered="20"/>
    <interval begin="17400.00" end="17500.00" id="l2" nVehContrib="13" flow="468.00" occupancy="5.98" speed="10.87" length="5.00" nVehEntered="13"/>
    <interval begin="17500.00" end="17600.00" id="l2" nVehContrib="0" flow="0.00" occupancy="0.00" speed="-1.00" length="-1.00" nVehEntered="0"/>
    <interval begin="17600.00" end="17700.00" id="l2" nVehContrib="0" flow="0.00" occupancy="0.00" speed="-1.00" length="-1.00" nVehEntered="0"/>
    <interval begin="17700.00" end="17800.00" id="l2" nVehContrib="20" flow="720.00" occupancy="11.08" speed="9.43" length="5.00" nVehEntered="20"/>
    <interval begin="17800.00" end="17900.00" id="l2" nVehContrib="0" flow="0.00" occupancy="0.00" speed="-1.00" length="-1.00" nVehEntered="0"/>
    <interval begin="17900.00" end="18000.00" id="l2" nVehContrib="23" flow="828.00" occupancy="12.66" speed="9.55" length="5.00" nVehEntered="23"/>
    <interval begin="18000.00" end="18100.00" id="l2" nVehContrib="7" flow="252.00" occupancy="3.21" speed="10.92" length="5.00" nVehEntered="7"/>
    <interval begin="18100.00" end="18200.00" id="l2" nVehContrib="12" flow="432.00" occupancy="7.38" speed="8.60" length="5.00" nVehEntered="12"/>
    <interval begin="18200.00" end="18300.00" id="l2" nVehContrib="12" flow="432.00" occupancy="7.42" speed="8.55" length="5.00" nVehEntered="12"/>
    <interval begin="18300.00" end="18400.00" id="l2" nVehContrib="0" flow="0.00" occupancy="0.00" speed="-1.00" length="-1.00" nVehEntered="0"/>
    <interval begin="18400.00" end="18500.00" id="l2" nVehContrib="21" flow="756.00" occupancy="11.76" speed="9.36" length="5.00" nVehEntered="21"/>
    <interval begin="18500.00" end="18600.00" id="l2" nVehContrib="0" flow="0.00" occupancy="0.00" speed="-1.00" length="-1.00" nVehEntered="0"/>
    <interval begin="18600.00" end="18700.00" id="l2" nVehContrib="17" flow="612.00" occupancy="11.29" speed="7.96" length="5.00" nVehEntered="17"/>
    <interval begin="18700.00" end="18800.00" id="l2" nVehContrib="1" flow="36.00" occupancy="0.46" speed="10.91" length="5.00" nVehEntered="1"/>
    <interval begin="18800.00" end="18900.00" id="l2" nVehContrib="0" flow="0.00" occupancy="0.00" speed="-1.00" length="-1.00" nVehEntered="0"/>
    <interval begin="18900.00" end="19000.00" id="l2" nVehContrib="1" flow="36.00" occupancy="0.97" speed="5.18" length="5.00" nVehEntered="1"/>
    <interval begin="19000.00" end="19100.00" id="l2" nVehContrib="32" flow="1152.00" occupancy="16.40" speed="10.03" length="5.00" nVehEntered="32"/>
    <interval begin="19100.00" end="19200.00" id="l2" nVehContrib="0" flow="0.00" occupancy="0.00" speed="-1.00" length="-1.00" nVehEntered="0"/>
    <interval begin="19200.00" end="19300.00" id="l2" nVehContrib="0" flow="0.00" occupancy="0.00" speed="-1.00" length="-1.00" nVehEntered="0"/>
    <interval begin="19300.00" end="19400.00" id="l2" nVehContrib="25" flow="900.00" occupancy="13.72" speed="9.53" length="5.00" nVehEntered="25"/>
    <interval begin="19400.00" end="19500.00" id="l2" nVehContrib="15" flow="540.00" occupancy="6.99" speed="10.76" length="5.00" nVehEntered="15"/>
    <interval begin="19500.00" end="19600.00" id="l2" nVehContrib="11" flow="396.00" occupancy="7.10" speed="8.20" length="5.00" nVehEntered="11"/>
    <interval begin="19600.00" end="19700.00" id="l2" nVehContrib="0" flow="0.00" occupancy="0.00" speed="-1.00" length="-1.00" nVehEntered="0"/>
    <interval begin="19700.00" end="19800.00" id="l2" nVehContrib="0" flow="0.00" occupancy="0.00" speed="-1.00" length="-1.00" nVehEntered="0"/>