<?xml version="1.0" encoding="UTF-8"?>

<!-- generated on Tue Sep 12 14:23:48 2017 by SUMO Version 0.30.0
<?xml version="1.0" encoding="UTF-8"?>

<configuration xmlns:xsi="http://www.w3.org/2001/XMLSchema-instance" xsi:noNamespaceSchemaLocation="http://sumo.dlr.de/xsd/sumoConfiguration.xsd">

    <input>
        <net-file value="scenarios/2_cross/cross.net.xml"/>
        <route-files value="scenarios/2_cross/cross.rou.xml"/>
        <additional-files value="scenarios/2_cross/cross1.det.xml"/>
    </input>

    <output>
        <tripinfo-output value="tripinfo.xml"/>
    </output>

    <time>
        <begin value="0"/>
    </time>

    <report>
        <verbose value="true"/>
        <no-step-log value="true"/>
    </report>

    <traci_server>
        <remote-port value="36479"/>
    </traci_server>

    <gui_only>
        <gui-settings-file value="scenarios/2_cross/gui.settings.xml"/>
        <quit-on-end value="true"/>
        <start value="true"/>
    </gui_only>

</configuration>
-->

<detector xmlns:xsi="http://www.w3.org/2001/XMLSchema-instance" xsi:noNamespaceSchemaLocation="http://sumo.dlr.de/xsd/det_e1_file.xsd">
    <interval begin="0.00" end="30.00" id="i0_a" nVehContrib="0" flow="0.00" occupancy="0.00" speed="-1.00" length="-1.00" nVehEntered="0"/>
    <interval begin="0.00" end="30.00" id="i1_a" nVehContrib="0" flow="0.00" occupancy="0.00" speed="-1.00" length="-1.00" nVehEntered="0"/>
    <interval begin="0.00" end="30.00" id="i3_a" nVehContrib="0" flow="0.00" occupancy="0.00" speed="-1.00" length="-1.00" nVehEntered="0"/>
    <interval begin="0.00" end="30.00" id="o0_a" nVehContrib="0" flow="0.00" occupancy="0.00" speed="-1.00" length="-1.00" nVehEntered="0"/>
    <interval begin="0.00" end="30.00" id="o1_a" nVehContrib="0" flow="0.00" occupancy="0.00" speed="-1.00" length="-1.00" nVehEntered="0"/>
    <interval begin="0.00" end="30.00" id="o3_a" nVehContrib="0" flow="0.00" occupancy="0.00" speed="-1.00" length="-1.00" nVehEntered="0"/>
    <interval begin="30.00" end="60.00" id="i0_a" nVehContrib="3" flow="360.00" occupancy="3.04" speed="16.45" length="5.00" nVehEntered="3"/>
    <interval begin="30.00" end="60.00" id="i1_a" nVehContrib="1" flow="120.00" occupancy="1.02" speed="16.39" length="5.00" nVehEntered="1"/>
    <interval begin="30.00" end="60.00" id="i3_a" nVehContrib="3" flow="360.00" occupancy="3.05" speed="16.41" length="5.00" nVehEntered="3"/>
    <interval begin="30.00" end="60.00" id="o0_a" nVehContrib="1" flow="120.00" occupancy="8.46" speed="16.51" length="5.00" nVehEntered="2"/>
    <interval begin="30.00" end="60.00" id="o1_a" nVehContrib="0" flow="0.00" occupancy="7.72" speed="-1.00" length="-1.00" nVehEntered="1"/>
    <interval begin="30.00" end="60.00" id="o3_a" nVehContrib="0" flow="0.00" occupancy="0.00" speed="-1.00" length="-1.00" nVehEntered="0"/>
    <interval begin="60.00" end="90.00" id="i0_a" nVehContrib="1" flow="120.00" occupancy="1.00" speed="16.62" length="5.00" nVehEntered="1"/>
    <interval begin="60.00" end="90.00" id="i1_a" nVehContrib="3" flow="360.00" occupancy="3.02" speed="16.55" length="5.00" nVehEntered="3"/>
    <interval begin="60.00" end="90.00" id="i3_a" nVehContrib="3" flow="360.00" occupancy="3.04" speed="16.44" length="5.00" nVehEntered="3"/>
    <interval begin="60.00" end="90.00" id="o0_a" nVehContrib="1" flow="120.00" occupancy="89.28" speed="0.30" length="5.00" nVehEntered="1"/>
    <interval begin="60.00" end="90.00" id="o1_a" nVehContrib="1" flow="120.00" occupancy="76.23" speed="0.21" length="5.00" nVehEntered="1"/>
    <interval begin="60.00" end="90.00" id="o3_a" nVehContrib="1" flow="120.00" occupancy="87.74" speed="0.24" length="5.00" nVehEntered="2"/>
    <interval begin="90.00" end="120.00" id="i0_a" nVehContrib="3" flow="360.00" occupancy="3.01" speed="16.61" length="5.00" nVehEntered="3"/>
    <interval begin="90.00" end="120.00" id="i1_a" nVehContrib="5" flow="600.00" occupancy="5.06" speed="16.48" length="5.00" nVehEntered="5"/>
    <interval begin="90.00" end="120.00" id="i3_a" nVehContrib="4" flow="480.00" occupancy="4.02" speed="16.57" length="5.00" nVehEntered="4"/>
    <interval begin="90.00" end="120.00" id="o0_a" nVehContrib="1" flow="120.00" occupancy="90.36" speed="0.32" length="5.00" nVehEntered="1"/>
    <interval begin="90.00" end="120.00" id="o1_a" nVehContrib="1" flow="120.00" occupancy="87.15" speed="0.19" length="5.00" nVehEntered="1"/>
    <interval begin="90.00" end="120.00" id="o3_a" nVehContrib="2" flow="240.00" occupancy="87.65" speed="1.35" length="5.00" nVehEntered="1"/>
    <interval begin="120.00" end="150.00" id="i0_a" nVehContrib="3" flow="360.00" occupancy="3.03" speed="16.48" length="5.00" nVehEntered="3"/>
    <interval begin="120.00" end="150.00" id="i1_a" nVehContrib="2" flow="240.00" occupancy="2.03" speed="16.45" length="5.00" nVehEntered="2"/>
    <interval begin="120.00" end="150.00" id="i3_a" nVehContrib="2" flow="240.00" occupancy="2.04" speed="16.33" length="5.00" nVehEntered="2"/>
    <interval begin="120.00" end="150.00" id="o0_a" nVehContrib="3" flow="360.00" occupancy="75.47" speed="0.98" length="5.00" nVehEntered="2"/>
    <interval begin="120.00" end="150.00" id="o1_a" nVehContrib="1" flow="120.00" occupancy="87.17" speed="0.22" length="5.00" nVehEntered="1"/>
    <interval begin="120.00" end="150.00" id="o3_a" nVehContrib="0" flow="0.00" occupancy="95.38" speed="-1.00" length="-1.00" nVehEntered="1"/>
    <interval begin="150.00" end="180.00" id="i0_a" nVehContrib="2" flow="240.00" occupancy="2.02" speed="16.52" length="5.00" nVehEntered="2"/>
    <interval begin="150.00" end="180.00" id="i1_a" nVehContrib="2" flow="240.00" occupancy="2.03" speed="16.43" length="5.00" nVehEntered="2"/>
    <interval begin="150.00" end="180.00" id="i3_a" nVehContrib="3" flow="360.00" occupancy="3.04" speed="16.45" length="5.00" nVehEntered="3"/>
    <interval begin="150.00" end="180.00" id="o0_a" nVehContrib="2" flow="240.00" occupancy="80.42" speed="1.40" length="5.00" nVehEntered="3"/>
    <interval begin="150.00" end="180.00" id="o1_a" nVehContrib="1" flow="120.00" occupancy="90.32" speed="0.27" length="5.00" nVehEntered="1"/>
    <interval begin="150.00" end="180.00" id="o3_a" nVehContrib="1" flow="120.00" occupancy="88.49" speed="0.12" length="5.00" nVehEntered="1"/>
    <interval begin="180.00" end="210.00" id="i0_a" nVehContrib="4" flow="480.00" occupancy="4.06" speed="16.42" length="5.00" nVehEntered="4"/>
    <interval begin="180.00" end="210.00" id="i1_a" nVehContrib="2" flow="240.00" occupancy="2.69" speed="16.49" length="5.00" nVehEntered="3"/>
    <interval begin="180.00" end="210.00" id="i3_a" nVehContrib="2" flow="240.00" occupancy="2.02" speed="16.47" length="5.00" nVehEntered="2"/>
    <interval begin="180.00" end="210.00" id="o0_a" nVehContrib="1" flow="120.00" occupancy="93.78" speed="0.15" length="5.00" nVehEntered="0"/>
    <interval begin="180.00" end="210.00" id="o1_a" nVehContrib="2" flow="240.00" occupancy="81.00" speed="1.48" length="5.00" nVehEntered="2"/>
    <interval begin="180.00" end="210.00" id="o3_a" nVehContrib="2" flow="240.00" occupancy="82.71" speed="1.34" length="5.00" nVehEntered="2"/>
    <interval begin="210.00" end="240.00" id="i0_a" nVehContrib="3" flow="360.00" occupancy="3.05" speed="16.40" length="5.00" nVehEntered="3"/>
    <interval begin="210.00" end="240.00" id="i1_a" nVehContrib="4" flow="480.00" occupancy="3.40" speed="16.42" length="5.00" nVehEntered="3"/>
    <interval begin="210.00" end="240.00" id="i3_a" nVehContrib="5" flow="600.00" occupancy="5.04" speed="16.54" length="5.00" nVehEntered="5"/>
    <interval begin="210.00" end="240.00" id="o0_a" nVehContrib="0" flow="0.00" occupancy="94.70" speed="-1.00" length="-1.00" nVehEntered="1"/>
    <interval begin="210.00" end="240.00" id="o1_a" nVehContrib="3" flow="360.00" occupancy="74.25" speed="2.18" length="5.00" nVehEntered="3"/>
    <interval begin="210.00" end="240.00" id="o3_a" nVehContrib="3" flow="360.00" occupancy="76.80" speed="2.09" length="5.00" nVehEntered="3"/>
    <interval begin="240.00" end="270.00" id="i0_a" nVehContrib="5" flow="600.00" occupancy="5.04" speed="16.54" length="5.00" nVehEntered="5"/>
    <interval begin="240.00" end="270.00" id="i1_a" nVehContrib="5" flow="600.00" occupancy="5.05" speed="16.50" length="5.00" nVehEntered="5"/>
    <interval begin="240.00" end="270.00" id="i3_a" nVehContrib="3" flow="360.00" occupancy="3.03" speed="16.49" length="5.00" nVehEntered="3"/>
    <interval begin="240.00" end="270.00" id="o0_a" nVehContrib="2" flow="240.00" occupancy="81.41" speed="0.28" length="5.00" nVehEntered="1"/>
    <interval begin="240.00" end="270.00" id="o1_a" nVehContrib="2" flow="240.00" occupancy="77.59" speed="0.34" length="5.00" nVehEntered="2"/>
    <interval begin="240.00" end="270.00" id="o3_a" nVehContrib="1" flow="120.00" occupancy="89.55" speed="0.35" length="5.00" nVehEntered="1"/>
    <interval begin="270.00" end="300.00" id="i0_a" nVehContrib="0" flow="0.00" occupancy="0.00" speed="-1.00" length="-1.00" nVehEntered="0"/>
    <interval begin="270.00" end="300.00" id="i1_a" nVehContrib="3" flow="360.00" occupancy="3.01" speed="16.59" length="5.00" nVehEntered