<?xml version="1.0" encoding="UTF-8"?>

<!-- generated on Fri Sep  8 11:22:18 2017 by SUMO gui Version 0.30.0
<?xml version="1.0" encoding="UTF-8"?>

<configuration xmlns:xsi="http://www.w3.org/2001/XMLSchema-instance" xsi:noNamespaceSchemaLocation="http://sumo.dlr.de/xsd/sumoConfiguration.xsd">

    <input>
        <net-file value="data/cross.net.xml"/>
        <route-files value="data/cross.rou.xml"/>
        <additional-files value="data/cross1.det.xml"/>
    </input>

    <output>
        <tripinfo-output value="tripinfo.xml"/>
    </output>

    <time>
        <begin value="0"/>
    </time>

    <report>
        <verbose value="true"/>
        <no-step-log value="true"/>
    </report>

    <traci_server>
        <remote-port value="49558"/>
    </traci_server>

    <gui_only>
        <gui-settings-file value="data/gui.settings.xml"/>
    </gui_only>

</configuration>
-->

<tripinfos xmlns:xsi="http://www.w3.org/2001/XMLSchema-instance" xsi:noNamespaceSchemaLocation="http://sumo.dlr.de/xsd/tripinfo_file.xsd">
    <tripinfo id="left_1" depart="3.00" departLane="52o_0" departPos="5.10" departSpeed="0.00" departDelay="0.00" arrival="94.00" arrivalLane="51i_0" arrivalPos="10.00" arrivalSpeed="11.59" duration="91.00" routeLength="1015.10" waitSteps="0" timeLoss="14.81" rerouteNo="0" devices="tripinfo_left_1" vType="typeWE" speedFactor="1.00" vaporized=""/>
    <tripinfo id="right_0" depart="3.00" departLane="51o_0" departPos="5.10" departSpeed="0.00" departDelay="0.00" arrival="95.00" arrivalLane="52i_0" arrivalPos="10.00" arrivalSpeed="11.52" duration="92.00" routeLength="1015.10" waitSteps="0" timeLoss="15.29" rerouteNo="0" devices="tripinfo_right_0" vType="typeWE" speedFactor="1.00" vaporized=""/>
    <tripinfo id="left_4" depart="8.00" departLane="52o_0" departPos="5.10" departSpeed="0.00" departDelay="2.00" arrival="99.00" arrivalLane="51i_0" arrivalPos="10.00" arrivalSpeed="11.83" duration="91.00" routeLength="1015.10" waitSteps="0" timeLoss="14.62" rerouteNo="0" devices="tripinfo_left_4" vType="typeWE" speedFactor="1.00" vaporized=""/>
    <tripinfo id="left_5" depart="13.00" departLane="52o_0" departPos="5.10" departSpeed="0.00" departDelay="6.00" arrival="120.00" arrivalLane="51i_0" arrivalPos="10.00" arrivalSpeed="11.45" duration="107.00" routeLength="1015.10" waitSteps="5" timeLoss="30.80" rerouteNo="0" devices="tripinfo_left_5" vType="typeWE" speedFactor="1.00" vaporized=""/>
    <tripinfo id="right_3" depart="8.00" departLane="51o_0" departPos="5.10" departSpeed="0.00" departDelay="3.00" arrival="121.00" arrivalLane="52i_0" arrivalPos="10.00" arrivalSpeed="11.55" duration="113.00" routeLength="1015.10" waitSteps="8" timeLoss="36.39" rerouteNo="0" devices="tripinfo_right_3" vType="typeWE" speedFactor="1.00" vaporized=""/>
    <tripinfo id="left_9" depart="22.00" departLane="52o_0" departPos="5.10" departSpeed="0.00" departDelay="0.00" arrival="122.00" arrivalLane="51i_0" arrivalPos="10.00" arrivalSpeed="10.72" duration="100.00" routeLength="1015.10" waitSteps="0" timeLoss="23.93" rerouteNo="0" devices="tripinfo_left_9" vType="typeWE" speedFactor="1.00" vaporized=""/>
    <tripinfo id="right_7" depart="14.00" departLane="51o_0" departPos="5.10" departSpeed="0.00" departDelay="0.00" arrival="123.00" arrivalLane="52i_0" arrivalPos="10.00" arrivalSpeed="10.29" duration="109.00" routeLength="1015.10" waitSteps="5" timeLoss="32.89" rerouteNo="0" devices="tripinfo_right_7" vType="typeWE" speedFactor="1.00" vaporized=""/>
    <tripinfo id="up_2" depart="3.00" departLane="53o_0" departPos="7.10" departSpeed="0.00" departDelay="0.00" arrival="134.00" arrivalLane="54i_0" arrivalPos="10.00" arrivalSpeed="11.56" duration="131.00" routeLength="1013.10" waitSteps="32" timeLoss="59.15" rerouteNo="0" devices="tripinfo_up_2" vType="typeNS" speedFactor="1.00" vaporized=""/>
    <tripinfo id="down_6" depart="8.00" departLane="54o_0" departPos="7.10" departSpeed="0.00" departDelay="0.00" arrival="134.00" arrivalLane="53i_0" arrivalPos="10.00" arrivalSpeed="11.56" duration="126.00" routeLength="1013.10" waitSteps="26" timeLoss="54.50" rerouteNo="0" devices="tripinfo_down_6" vType="typeNS" speedFactor="1.00" vaporized=""/>
    <tripinfo id="right_16" depart="46.00" departLane="51o_0" departPos="5.10" departSpeed="0.00" departDelay="0.00" arrival="137.00" arrivalLane="52i_0" arrivalPos="10.00" arrivalSpeed="11.53" duration="91.00" routeLength="1015.10" waitSteps="0" timeLoss="14.76" rerouteNo="0" devices="tripinfo_right_16" vType="typeWE" speedFactor="1.00" vaporized=""/>
    <tripinfo id="right_18" depart="54.00" departLane="51o_0" departPos="5.10" departSpeed="0.00" departDelay="0.00" arrival="157.00" arrivalLane="52i_0" arrivalPos="10.00" arrivalSpeed="11.79" duration="103.00" routeLength="1015.10" waitSteps="0" timeLoss="27.21" rerouteNo="0" devices="tripinfo_right_18" vType="typeWE" speedFactor="1.00" vaporized=""/>
    <tripinfo id="left_11" depart="28.00" departLane="52o_0" departPos="5.10" departSpeed="0.00" departDelay="0.00" arrival="158.00" arrivalLane="51i_0" arrivalPos="10.00" arrivalSpeed="11.17" duration="130.00" routeLength="1015.10" waitSteps="27" timeLoss="53.77" rerouteNo="0" devices="tripinfo_left_11" vType="typeWE" speedFactor="1.00" vaporized=""/>
    <tripinfo id="right_22" depart="59.00" departLane="51o_0" departPos="5.10" departSpeed="0.00" departDelay="0.00" arrival="160.00" arrivalLane="52i_0" arrivalPos="10.00" arrivalSpeed="11.40" duration="101.00" routeLength="1015.10" waitSteps="0" timeLoss="24.41" rerouteNo="0" devices="tripinfo_right_22" vType="typeWE" speedFactor="1.00" vaporized=""/>
    <tripinfo id="left_13" depart="36.00" departLane="52o_0" departPos="5.10" departSpeed="0.00" departDelay="0.00" arrival="160.00" arrivalLane="51i_0" arrivalPos="10.00" arrivalSpeed="10.67" duration="124.00" routeLength="1015.10" waitSteps="17" timeLoss="47.88" rerouteNo="0" devices="tripinfo_left_13" vType="typeWE" speedFactor="1.00" vaporized=""/>
    <tripinfo id="up_8" depart="18.00" departLane="53o_0" departPos="7.10" departSpeed="0.00" departDelay="0.00" arrival="168.00" arrivalLane="54i_0" arrivalPos="10.00" arrivalSpeed="11.39" duration="150.00" routeLength="1013.10" waitSteps="44" timeLoss="78.72" rerouteNo="0" devices="tripinfo_up_8" vType="typeNS" speedFactor="1.00" vaporized=""/>
    <tripinfo id="down_14" depart="40.00" departLane="54o_0" departPos="7.10" departSpeed="0.00" departDelay="0.00" arrival="169.00" arrivalLane="53i_0" arrivalPos="10.00" arrivalSpeed="11.34" duration="129.00" routeLength="1013.10" waitSteps="26" timeLoss="57.78" rerouteNo="0" devices="tripinfo_down_14" vType="typeNS" speedFactor="1.00" vaporized=""/>
    <tripinfo id="down_15" depart="46.00" departLane="54o_0" departPos="7.10" departSpeed="0.00" departDelay="1.00" arrival="187.00" arrivalLane="53i_0" arrivalPos="10.00" arrivalSpeed="11.81" duration="141.00" routeLength="1013.10" waitSteps="33" timeLoss="69.12" rerouteNo="0" devices="tripinfo_down_15" vType="typeNS" speedFactor="1.00" vaporized=""/>
    <tripinfo id="up_10" depart="24.00" departLane="53o_0" departPos="7.10" departSpeed="0.00" departDelay="0.00" arrival="188.00" arrivalLane="54i_0" arrivalPos="10.00" arrivalSpeed="11.74" duration="164.00" routeLength="1013.10" waitSteps="47" timeLoss="91.95" rerouteNo="0" devices="tripinfo_up_10" vType="typeNS" speedFactor="1.00" vaporized=""/>
    <tripinfo id="left_21" depart="58.00" departLane="52o_0" departPos="5.10" departSpeed="0.00" departDelay="0.00" arrival="195.00" arrivalLane="51i_0" arrivalPos="10.00" arrivalSpeed="11.07" duration="137.00" routeLength="1015.10" waitSteps="27" timeLoss="61.04" rerouteNo="0" devices="tripinfo_left_21" vType="typeWE" speedFactor="1.00" vaporized=""/>
    <tripinfo id="right_26" depart="66.00" departLane="51o_0" departPos="5.10" departSpeed="0.00" departDelay="0.00" arrival="195.00" arrivalLane="52i_0" arrivalPos="10.00" arrivalSpeed="11.83" duration="129.00" routeLength="1015.10" waitSteps="27" timeLoss="53.12" rerouteNo="0" devices="tripinfo_right_26" vType="typeWE" speedFactor="1.00" vaporized=""/>
    <tripinfo id="right_29" depart="72.00" departLane="51o_0" departPos="5.10" departSpeed="0.00" departDelay="0.00" arrival="212.00" arrivalLane="52i_0" arrivalPos="10.00" arrivalSpeed="11.62" duration="140.00" routeLength="1015.10" waitSteps="33" timeLoss="63.79" rerouteNo="0" devices="tripinfo_right_29" vType="typeWE" speedFactor="1.00" vaporized=""/>
    <tripinfo id="left_25" depart="65.00" departLane="52o_0" departPos="5.10" departSpeed="0.00" departDelay="0.00" arrival="212.00" arrivalLane="51i_0" arrivalPos="10.00" arrivalSpeed="11.79" duration="147.00" routeLength="1015.10" waitSteps="37" timeLoss="70.61" rerouteNo="0" devices="tripinfo_left_25" vType="typeWE" speedFactor="1.00" vaporized=""/>
    <tripinfo id="down_17" depart="52.00" departLane="54o_0" departPos="7.10" departSpeed="0.00" departDelay="4.00" arrival="237.00" arrivalLane="53i_0" arrivalPos="10.00" arrivalSpeed="10.87" duration="185.00" routeLength="1013.10" waitSteps="70" timeLoss="113.45" rerouteNo="0" devices="tripinfo_down_17" vType="typeNS" speedFactor="1.00" vaporized=""/>
    <tripinfo id="up_12" depart="30.00" departLane="53o_0" departPos="7.10" departSpeed="0.00" departDelay="1.00" arrival="237.00" arrivalLane="54i_0" arrivalPos="10.00" arrivalSpeed="11.39" duration="207.00" routeLength="1013.10" waitSteps="82" timeLoss="135.52" rerouteNo="0" devices="tripinfo_up_12" vType="typeNS" speedFactor="1.00" vaporized=""/>
    <tripinfo id="right_31" depart="77.00" departLane="51o_0" departPos="5.10" departSpeed="0.00" departDelay="3.00" arrival="249.00" arrivalLane="52i_0" arrivalPos="10.00" arrivalSpeed="11.54" duration="172.00" routeLength="1015.10" waitSteps="57" timeLoss="95.74" rerouteNo="0" devices="tripinfo_right_31" vType="typeWE" speedFactor="1.00" vaporized=""/>
    <tripinfo id="left_28" depart="70.00" departLane="52o_0" departPos="5.10" departSpeed="0.00" departDelay="0.00" arrival="250.00" arrivalLane="51i_0" arrivalPos="10.00" arrivalSpeed="11.40" duration="180.00" routeLength="1015.10" waitSteps="63" timeLoss="103.53" rerouteNo="0" devices="tripinfo_left_28" vType="typeWE" speedFactor="1.00" vaporized=""/>
    <tripinfo id="up_23" depart="60.00" departLane="53o_0" departPos="7.10" departSpeed="0.00" departDelay="0.00" arrival="271.00" arrivalLane="54i_0" arrivalPos="10.00" arrivalSpeed="11.57" duration="211.00" routeLength="1013.10" waitSteps="88" timeLoss="139.63" rerouteNo="0" devices="tripinfo_up_23" vType="typeNS" speedFactor="1.00" vaporized=""/>
    <tripinfo id="down_19" depart="58.00" departLane="54o_0" departPos="7.10" departSpeed="0.00" departDelay="3.00" arrival="272.00" arrivalLane="53i_0" arrivalPos="10.00" arrivalSpeed="11.49" duration="214.00" routeLength="1013.10" waitSteps="90" timeLoss="141.97" rerouteNo="0" devices="tripinfo_down_19" vType="typeNS" speedFactor="1.00" vaporized=""/>
    <tripinfo id="right_37" depart="94.00" departLane="51o_0" departPos="5.10" departSpeed="0.00" departDelay="1.00" arrival="278.00" arrivalLane="52i_0" arrivalPos="10.00" arrivalSpeed="10.93" duration="184.00" routeLength="1015.10" waitSteps="63" timeLoss="107.90" rerouteNo="0" devices="tripinfo_right_37" vType="typeWE" speedFactor="1.00" vaporized=""/>
    <tripinfo id="left_39" depart="95.00" departLane="52o_0" departPos="5.10" departSpeed="0.00" departDelay="0.00" arrival="278.00" arrivalLane="51i_0" arrivalPos="10.00" arrivalSpeed="11.32" duration="183.00" routeLength="1015.10" waitSteps="61" timeLoss="107.07" rerouteNo="0" devices="tripinfo_left_39" vType="typeWE" speedFactor="1.00" vaporized=""/>
    <tripinfo id="right_38" depart="99.00" departLane="51o_0" departPos="5.10" departSpeed="0.00" departDelay="4.00" arrival="294.00" arrivalLane="52i_0" arrivalPos="10.00" arrivalSpeed="11.39" duration="195.00" routeLength="1015.10" waitSteps="64" timeLoss="118.95" rerouteNo="0" devices="tripinfo_right_38" vType="typeWE" speedFactor="1.00" vaporized=""/>
    <tripinfo id="left_47" depart="117.00" departLane="52o_0" departPos="5.10" departSpeed="0.00" departDelay="0.00" arrival="294.00" arrivalLane="51i_0" arrivalPos="10.00" arrivalSpeed="11.32" duration="177.00" routeLength="1015.10" waitSteps="57" timeLoss="100.85" rerouteNo="0" devices="tripinfo_left_47" vType="typeWE" speedFactor="1.00" vaporized=""/>
    <tripinfo id="down_20" depart="64.00" departLane="54o_0" departPos="7.10" departSpeed="0.00" departDelay="7.00" arrival="303.00" arrivalLane="53i_0" arrivalPos="10.00" arrivalSpeed="10.94" duration="239.00" routeLength="1013.10" waitSteps="108" timeLoss="167.37" rerouteNo="0" devices="tripinfo_down_20" vType="typeNS" speedFactor="1.00" vaporized=""/>
    <tripinfo id="up_27" depart="66.00" departLane="53o_0" departPos="7.10" departSpeed="0.00" departDelay="0.00" arrival="303.00" arrivalLane="54i_0" arrivalPos="10.00" arrivalSpeed="11.71" duration="237.00" routeLength="1013.10" waitSteps="106" timeLoss="165.36" rerouteNo="0" devices="tripinfo_up_27" vType="typeNS" speedFactor="1.00" vaporized=""/>
    <tripinfo id="left_50" depart="128.00" departLane="52o_0" departPos="5.10" departSpeed="0.00" departDelay="0.00" arrival="310.00" arrivalLane="51i_0" arrivalPos="10.00" arrivalSpeed="11.31" duration="182.00" routeLength="1015.10" waitSteps="57" timeLoss="105.92" rerouteNo="0" devices="tripinfo_left_50" vType="typeWE" speedFactor="1.00" vaporized=""/>
    <tripinfo id="right_41" depart="104.00" departLane="51o_0" departPos="5.10" departSpeed="0.00" departDelay="1.00" arrival="311.00" arrivalLane="52i_0" arrivalPos="10.00" arrivalSpeed="11.52" duration="207.00" routeLength="1015.10" waitSteps="71" timeLoss="130.59" rerouteNo="0" devices="tripinfo_right_41" vType="typeWE" speedFactor="1.00" vaporized=""/>
    <tripinfo id="right_42" depart="109.00" departLane="51o_0" departPos="5.10" departSpeed="0.00" departDelay="5.00" arrival="313.00" arrivalLane="52i_0" arrivalPos="10.00" arrivalSpeed="10.01" duration="204.00" routeLength="1015.10" waitSteps="66" timeLoss="127.87" rerouteNo="0" devices="tripinfo_right_42" vType="typeWE" speedFactor="1.00" vaporized=""/>
    <tripinfo id="left_53" depart="137.00" departLane="52o_0" departPos="5.10" departSpeed="0.00" departDelay="1.00" arrival="313.00" arrivalLane="51i_0" arrivalPos="10.00" arrivalSpeed="11.75" duration="176.00" routeLength="1015.10" waitSteps="52" timeLoss="99.58" rerouteNo="0" devices="tripinfo_left_53" vType="typeWE" speedFactor="1.00" vaporized=""/>
    <tripinfo id="right_43" depart="114.00" departLane="51o_0" departPos="5.10" departSpeed="0.00" departDelay="9.00" arrival="330.00" arrivalLane="52i_0" arrivalPos="10.00" arrivalSpeed="10.88" duration="216.00" routeLength="1015.10" waitSteps="75" timeLoss="139.94" rerouteNo="0" devices="tripinfo_right_43" vType="typeWE" speedFactor="1.00" vaporized=""/>
    <tripinfo id="left_54" depart="142.00" departLane="52o_0" departPos="5.10" departSpeed="0.00" departDelay="2.00" arrival="331.00" arrivalLane="51i_0" arrivalPos="10.00" arrivalSpeed="11.63" duration="189.00" routeLength="1015.10" waitSteps="55" timeLoss="112.59" rerouteNo="0" devices="tripinfo_left_54" vType="typeWE" speedFactor="1.00" vaporized=""/>
    <tripinfo id="down_24" depart="70.00" departLane="54o_0" departPos="7.10" departSpeed="0.00" departDelay="6.00" arrival="340.00" arrivalLane="53i_0" arrivalPos="10.00" arrivalSpeed="11.48" duration="270.00" routeLength="1013.10" waitSteps="128" timeLoss="198.33" rerouteNo="0" devices="tripinfo_down_24" vType="typeNS" speedFactor="1.00" vaporized=""/>
    <tripinfo id="up_33" depart="83.00" departLane="53o_0" departPos="7.10" departSpeed="0.00" departDelay="0.00" arrival="341.00" arrivalLane="54i_0" arrivalPos="10.00" arrivalSpeed="11.56" duration="258.00" routeLength="1013.10" waitSteps="120" timeLoss="185.82" rerouteNo="0" devices="tripinfo_up_33" vType="typeNS" speedFactor="1.00" vaporized=""/>
    <tripinfo id="up_35" depart="88.00" departLane="53o_0" departPos="7.10" departSpeed="0.00" departDelay="3.00" arrival="343.00" arrivalLane="54i_0" arrivalPos="10.00" arrivalSpeed="8.70" duration="255.00" routeLength="1013.10" waitSteps="111" timeLoss="183.33" rerouteNo="0" devices="tripinfo_up_35" vType="typeNS" speedFactor="1.00" vaporized=""/>
    <tripinfo id="down_30" depart="76.00" departLane="54o_0" departPos="7.10" departSpeed="0.00" departDelay="3.00" arrival="343.00" arrivalLane="53i_0" arrivalPos="10.00" arrivalSpeed="11.41" duration="267.00" routeLength="1013.10" waitSteps="120" timeLoss="194.73" rerouteNo="0" devices="tripinfo_down_30" vType="typeNS" speedFactor="1.00" vaporized=""/>
    <tripinfo id="right_45" depart="120.00" departLane="51o_0" departPos="5.10" departSpeed="0.00" departDelay="12.00" arrival="353.00" arrivalLane="52i_0" arrivalPos="10.00" arrivalSpeed="11.66" duration="233.00" routeLength="1015.10" waitSteps="84" timeLoss="156.98" rerouteNo="0" devices="tripinfo_right_45" vType="typeWE" speedFactor="1.00" vaporized=""/>
    <tripinfo id="left_57" depart="148.00" departLane="52o_0" departPos="5.10" departSpeed="0.00" departDelay="4.00" arrival="354.00" arrivalLane="51i_0" arrivalPos="10.00" arrivalSpeed="11.73" duration="206.00" routeLength="1015.10" waitSteps="62" timeLoss="129.83" rerouteNo="0" devices="tripinfo_left_57" vType="typeWE" speedFactor="1.00" vaporized=""/>
    <tripinfo id="right_46" depart="125.00" departLane="51o_0" departPos="5.10" departSpeed="0.00" departDelay="15.00" arrival="371.00" arrivalLane="52i_0" arrivalPos="10.00" arrivalSpeed="11.74" duration="246.00" routeLength="1015.10" waitSteps="88" timeLoss="169.48" rerouteNo="0" devices="tripinfo_right_46" vType="typeWE" speedFactor="1.00" vaporized=""/>
    <tripinfo id="left_62" depart="163.00" departLane="52o_0" departPos="5.10" departSpeed="0.00" departDelay="0.00" arrival="371.00" arrivalLane="51i_0" arrivalPos="10.00" arrivalSpeed="11.28" duration="208.00" routeLength="1015.10" waitSteps="66" timeLoss="132.00" rerouteNo="0" devices="tripinfo_left_62" vType="typeWE" speedFactor="1.00" vaporized=""/>
    <tripinfo id="down_32" depart="82.00" departLane="54o_0" departPos="7.10" departSpeed="0.00" departDelay="0.00" arrival="379.00" arrivalLane="53i_0" arrivalPos="10.00" arrivalSpeed="11.38" duration="297.00" routeLength="1013.10" waitSteps="142" timeLoss="225.67" rerouteNo="0" devices="tripinfo_down_32" vType="typeNS" speedFactor="1.00" vaporized=""/>
    <tripinfo id="up_60" depart="161.00" departLane="53o_0" departPos="7.10" departSpeed="0.00" departDelay="0.00" arrival="381.00" arrivalLane="54i_0" arrivalPos="10.00" arrivalSpeed="11.34" duration="220.00" routeLength="1013.10" waitSteps="89" timeLoss="148.26" rerouteNo="0" devices="tripinfo_up_60" vType="typeNS" speedFactor="1.00" vaporized=""/>
    <tripinfo id="left_68" depart="173.00" departLane="52o_0" departPos="5.10" departSpeed="0.00" departDelay="0.00" arrival="387.00" arrivalLane="51i_0" arrivalPos="10.00" arrivalSpeed="11.31" duration="214.00" routeLength="1015.10" waitSteps="66" timeLoss="138.10" rerouteNo="0" devices="tripinfo_left_68" vType="typeWE" speedFactor="1.00" vaporized=""/>
    <tripinfo id="right_49" depart="130.00" departLane="51o_0" departPos="5.10" departSpeed="0.00" departDelay="8.00" arrival="388.00" arrivalLane="52i_0" arrivalPos="10.00" arrivalSpeed="11.53" duration="258.00" routeLength="1015.10" waitSteps="95" timeLoss="181.26" rerouteNo="0" devices="tripinfo_right_49" vType="typeWE" speedFactor="1.00" vaporized=""/>
    <tripinfo id="up_69" depart="173.00" departLane="53o_0" departPos="7.10" departSpeed="0.00" departDelay="0.00" arrival="397.00" arrivalLane="54i_0" arrivalPos="10.00" arrivalSpeed="11.19" duration="224.00" routeLength="1013.10" waitSteps="81" timeLoss="152.09" rerouteNo="0" devices="tripinfo_up_69" vType="typeNS" speedFactor="1.00" vaporized=""/>
    <tripinfo id="down_34" depart="88.00" departLane="54o_0" departPos="7.10" departSpeed="0.00" departDelay="3.00" arrival="397.00" arrivalLane="53i_0" arrivalPos="10.00" arrivalSpeed="11.77" duration="309.00" routeLength="1013.10" waitSteps="147" timeLoss="237.06" rerouteNo="0" devices="tripinfo_down_34" vType="typeNS" speedFactor="1.00" vaporized=""/>
    <tripinfo id="down_36" depart="94.00" departLane="54o_0" departPos="7.10" departSpeed="0.00" departDelay="2.00" arrival="411.00" arrivalLane="53i_0" arrivalPos="10.00" arrivalSpeed="11.02" duration="317.00" routeLength="1013.10" waitSteps="153" timeLoss="245.28" rerouteNo="0" devices="tripinfo_down_36" vType="typeNS" speedFactor="1.00" vaporized=""/>
    <tripinfo id="up_74" depart="187.00" departLane="53o_0" departPos="7.10" departSpeed="0.00" departDelay="1.00" arrival="411.00" arrivalLane="54i_0" arrivalPos="10.00" arrivalSpeed="11.36" duration="224.00" routeLength="1013.10" waitSteps="80" timeLoss="152.66" rerouteNo="0" devices="tripinfo_up_74" vType="typeNS" speedFactor="1.00" vaporized=""/>
    <tripinfo id="right_51" depart="135.00" departLane="51o_0" departPos="5.10" departSpeed="0.00" departDelay="2.00" arrival="421.00" arrivalLane="52i_0" arrivalPos="10.00" arrivalSpeed="11.52" duration="286.00" routeLength="1015.10" waitSteps="118" timeLoss="209.41" rerouteNo="0" devices="tripinfo_right_51" vType="typeWE" speedFactor="1.00" vaporized=""/>
    <tripinfo id="left_70" depart="178.00" departLane="52o_0" departPos="5.10" departSpeed="0.00" departDelay="3.00" arrival="421.00" arrivalLane="51i_0" arrivalPos="10.00" arrivalSpeed="11.50" duration="243.00" routeLength="1015.10" waitSteps="86" timeLoss="166.66" rerouteNo="0" devices="tripinfo_left_70" vType="typeWE" speedFactor="1.00" vaporized=""/>
    <tripinfo id="down_40" depart="100.00" departLane="54o_0" departPos="7.10" departSpeed="0.00" departDelay="0.00" arrival="427.00" arrivalLane="53i_0" arrivalPos="10.00" arrivalSpeed="11.10" duration="327.00" routeLength="1013.10" waitSteps="147" timeLoss="255.28" rerouteNo="0" devices="tripinfo_down_40" vType="typeNS" speedFactor="1.00" vaporized=""/>
    <tripinfo id="up_76" depart="194.00" departLane="53o_0" departPos="7.10" departSpeed="0.00" departDelay="0.00" arrival="428.00" arrivalLane="54i_0" arrivalPos="10.00" arrivalSpeed="11.23" duration="234.00" routeLength="1013.10" waitSteps="84" timeLoss="162.03" rerouteNo="0" devices="tripinfo_up_76" vType="typeNS" speedFactor="1.00" vaporized=""/>
    <tripinfo id="up_82" depart="205.00" departLane="53o_0" departPos="7.10" departSpeed="0.00" departDelay="0.00" arrival="445.00" arrivalLane="54i_0" arrivalPos="10.00" arrivalSpeed="11.85" duration="240.00" routeLength="1013.10" waitSteps="89" timeLoss="168.62" rerouteNo="0" devices="tripinfo_up_82" vType="typeNS" speedFactor="1.00" vaporized=""/>
    <tripinfo id="down_44" depart="107.00" departLane="54o_0" departPos="7.10" departSpeed="0.00" departDelay="0.00" arrival="445.00" arrivalLane="53i_0" arrivalPos="10.00" arrivalSpeed="11.65" duration="338.00" routeLength="1013.10" waitSteps="156" timeLoss="266.32" rerouteNo="0" devices="tripinfo_down_44" vType="typeNS" speedFactor="1.00" vaporized=""/>
    <tripinfo id="down_48" depart="117.00" departLane="54o_0" departPos="7.10" departSpeed="0.00" departDelay="0.00" arrival="447.00" arrivalLane="53i_0" arrivalPos="10.00" arrivalSpeed="11.43" duration="330.00" routeLength="1013.10" waitSteps="153" timeLoss="258.60" rerouteNo="0" devices="tripinfo_down_48" vType="typeNS" speedFactor="1.00" vaporized=""/>
    <tripinfo id="up_86" depart="218.00" departLane="53o_0" departPos="7.10" departSpeed="0.00" departDelay="0.00" arrival="448.00" arrivalLane="54i_0" arrivalPos="10.00" arrivalSpeed="11.55" duration="230.00" routeLength="1013.10" waitSteps="76" timeLoss="157.78" rerouteNo="0" devices="tripinfo_up_86" vType="typeNS" speedFactor="1.00" vaporized=""/>
    <tripinfo id="right_52" depart="140.00" departLane="51o_0" departPos="5.10" departSpeed="0.00" departDelay="6.00" arrival="459.00" arrivalLane="52i_0" arrivalPos="10.00" arrivalSpeed="11.45" duration="319.00" routeLength="1015.10" waitSteps="138" timeLoss="243.07" rerouteNo="0" devices="tripinfo_right_52" vType="typeWE" speedFactor="1.00" vaporized=""/>
    <tripinfo id="left_72" depart="183.00" departLane="52o_0" departPos="5.10" departSpeed="0.00" departDelay="3.00" arrival="459.00" arrivalLane="51i_0" arrivalPos="10.00" arrivalSpeed="11.59" duration="276.00" routeLength="1015.10" waitSteps="109" timeLoss="199.97" rerouteNo="0" devices="tripinfo_left_72" vType="typeWE" speedFactor="1.00" vaporized=""/>
    <tripinfo id="right_55" depart="145.00" departLane="51o_0" departPos="5.10" departSpeed="0.00" departDelay="3.00" arrival="461.00" arrivalLane="52i_0" arrivalPos="10.00" arrivalSpeed="11.79" duration="316.00" routeLength="1015.10" waitSteps="133" timeLoss="239.89" rerouteNo="0" devices="tripinfo_right_55" vType="typeWE" speedFactor="1.00" vaporized=""/>
    <tripinfo id="left_81" depart="203.00" departLane="52o_0" departPos="5.10" departSpeed="0.00" departDelay="0.00" arrival="462.00" arrivalLane="51i_0" arrivalPos="10.00" arrivalSpeed="11.50" duration="259.00" routeLength="1015.10" waitSteps="98" timeLoss="182.27" rerouteNo="0" devices="tripinfo_left_81" vType="typeWE" speedFactor="1.00" vaporized=""/>
    <tripinfo id="right_58" depart="150.00" departLane="51o_0" departPos="5.10" departSpeed="0.00" departDelay="5.00" arrival="479.00" arrivalLane="52i_0" arrivalPos="10.00" arrivalSpeed="11.72" duration="329.00" routeLength="1015.10" waitSteps="138" timeLoss="252.86" rerouteNo="0" devices="tripinfo_right_58" vType="typeWE" speedFactor="1.00" vaporized=""/>
    <tripinfo id="left_88" depart="223.00" departLane="52o_0" departPos="5.10" departSpeed="0.00" departDelay="0.00" arrival="480.00" arrivalLane="51i_0" arrivalPos="10.00" arrivalSpeed="11.28" duration="257.00" routeLength="1015.10" waitSteps="94" timeLoss="180.99" rerouteNo="0" devices="tripinfo_left_88" vType="typeWE" speedFactor="1.00" vaporized=""/>
    <tripinfo id="up_96" depart="256.00" departLane="53o_0" departPos="7.10" departSpeed="0.00" departDelay="0.00" arrival="490.00" arrivalLane="54i_0" arrivalPos="10.00" arrivalSpeed="11.01" duration="234.00" routeLength="1013.10" waitSteps="84" timeLoss="162.46" rerouteNo="0" devices="tripinfo_up_96" vType="typeNS" speedFactor="1.00" vaporized=""/>
    <tripinfo id="down_56" depart="143.00" departLane="54o_0" departPos="7.10" departSpeed="0.00" departDelay="0.00" arrival="491.00" arrivalLane="53i_0" arrivalPos="10.00" arrivalSpeed="11.18" duration="348.00" routeLength="1013.10" waitSteps="157" timeLoss="276.25" rerouteNo="0" devices="tripinfo_down_56" vType="typeNS" speedFactor="1.00" vaporized=""/>
    <tripinfo id="up_100" depart="263.00" departLane="53o_0" departPos="7.10" departSpeed="0.00" departDelay="0.00" arrival="493.00" arrivalLane="54i_0" arrivalPos="10.00" arrivalSpeed="11.71" duration="230.00" routeLength="1013.10" waitSteps="83" timeLoss="158.18" rerouteNo="0" devices="tripinfo_up_100" vType="typeNS" speedFactor="1.00" vaporized=""/>
    <tripinfo id="down_59" depart="161.00" departLane="54o_0" departPos="7.10" departSpeed="0.00" departDelay="0.00" arrival="493.00" arrivalLane="53i_0" arrivalPos="10.00" arrivalSpeed="11.75" duration="332.00" routeLength="1013.10" waitSteps="141" timeLoss="260.44" rerouteNo="0" devices="tripinfo_down_59" vType="typeNS" speedFactor="1.00" vaporized=""/>
    <tripinfo id="right_64" depart="167.00" departLane="51o_0" departPos="5.10" departSpeed="0.00" departDelay="0.00" arrival="503.00" arrivalLane="52i_0" arrivalPos="10.00" arrivalSpeed="11.65" duration="336.00" routeLength="1015.10" waitSteps="134" timeLoss="259.98" rerouteNo="0" devices="tripinfo_right_64" vType="typeWE" speedFactor="1.00" vaporized=""/>
    <tripinfo id="left_90" depart="229.00" departLane="52o_0" departPos="5.10" departSpeed="0.00" departDelay="0.00" arrival="504.00" arrivalLane="51i_0" arrivalPos="10.00" arrivalSpeed="11.31" duration="275.00" routeLength="1015.10" waitSteps="107" timeLoss="198.75" rerouteNo="0" devices="tripinfo_left_90" vType="typeWE" speedFactor="1.00" vaporized=""/>
    <tripinfo id="right_65" depart="172.00" departLane="51o_0" departPos="5.10" departSpeed="0.00" departDelay="1.00" arrival="520.00" arrivalLane="52i_0" arrivalPos="10.00" arrivalSpeed="11.61" duration="348.00" routeLength="1015.10" waitSteps="138" timeLoss="271.42" rerouteNo="0" devices="tripinfo_right_65" vType="typeWE" speedFactor="1.00" vaporized=""/>
    <tripinfo id="left_92" depart="235.00" departLane="52o_0" departPos="5.10" departSpeed="0.00" departDelay="0.00" arrival="520.00" arrivalLane="51i_0" arrivalPos="10.00" arrivalSpeed="11.77" duration="285.00" routeLength="1015.10" waitSteps="111" timeLoss="208.54" rerouteNo="0" devices="tripinfo_left_92" vType="typeWE" speedFactor="1.00" vaporized=""/>
    <tripinfo id="down_61" depart="168.00" departLane="54o_0" departPos="7.10" departSpeed="0.00" departDelay="6.00" arrival="528.00" arrivalLane="53i_0" arrivalPos="10.00" arrivalSpeed="11.24" duration="360.00" routeLength="1013.10" waitSteps="164" timeLoss="288.58" rerouteNo="0" devices="tripinfo_down_61" vType="typeNS" speedFactor="1.00" vaporized=""/>
    <tripinfo id="up_102" depart="269.00" departLane="53o_0" departPos="7.10" departSpeed="0.00" departDelay="3.00" arrival="529.00" arrivalLane="54i_0" arrivalPos="10.00" arrivalSpeed="11.29" duration="260.00" routeLength="1013.10" waitSteps="101" timeLoss="188.29" rerouteNo="0" devices="tripinfo_up_102" vType="typeNS" speedFactor="1.00" vaporized=""/>
    <tripinfo id="right_67" depart="178.00" departLane="51o_0" departPos="5.10" departSpeed="0.00" departDelay="6.00" arrival="552.00" arrivalLane="52i_0" arrivalPos="10.00" arrivalSpeed="11.55" duration="374.00" routeLength="1015.10" waitSteps="158" timeLoss="297.18" rerouteNo="0" devices="tripinfo_right_67" vType="typeWE" speedFactor="1.00" vaporized=""/>