<?xml version="1.0" encoding="UTF-8"?>

<!-- generated on Thu Sep  7 13:05:26 2017 by SUMO Version 0.30.0
<?xml version="1.0" encoding="UTF-8"?>

<configuration xmlns:xsi="http://www.w3.org/2001/XMLSchema-instance" xsi:noNamespaceSchemaLocation="http://sumo.dlr.de/xsd/sumoConfiguration.xsd">

    <input>
        <net-file value="data/cross.net.xml"/>
        <route-files value="data/cross.rou.xml"/>
        <additional-files value="data/cross1.det.xml"/>
    </input>

    <output>
        <tripinfo-output value="tripinfo.xml"/>
    </output>

    <time>
        <begin value="0"/>
    </time>

    <report>
        <verbose value="true"/>
        <no-step-log value="true"/>
    </report>

    <traci_server>
        <remote-port value="52258"/>
    </traci_server>

    <gui_only>
        <gui-settings-file value="data/gui.settings.xml"/>
    </gui_only>

</configuration>
-->

<tripinfos xmlns:xsi="http://www.w3.org/2001/XMLSchema-instance" xsi:noNamespaceSchemaLocation="http://sumo.dlr.de/xsd/tripinfo_file.xsd">
    <tripinfo id="up_2" depart="3.00" departLane="53o_0" departPos="7.10" departSpeed="0.00" departDelay="0.00" arrival="91.00" arrivalLane="54i_0" arrivalPos="10.00" arrivalSpeed="11.38" duration="88.00" routeLength="1013.10" waitSteps="0" timeLoss="16.32" rerouteNo="0" devices="tripinfo_up_2" vType="typeNS" speedFactor="1.00" vaporized=""/>
    <tripinfo id="down_1" depart="3.00" departLane="54o_0" departPos="7.10" departSpeed="0.00" departDelay="0.00" arrival="92.00" arrivalLane="53i_0" arrivalPos="10.00" arrivalSpeed="11.69" duration="89.00" routeLength="1013.10" waitSteps="0" timeLoss="17.27" rerouteNo="0" devices="tripinfo_down_1" vType="typeNS" speedFactor="1.00" vaporized=""/>
    <tripinfo id="up_6" depart="9.00" departLane="53o_0" departPos="7.10" departSpeed="0.00" departDelay="0.00" arrival="98.00" arrivalLane="54i_0" arrivalPos="10.00" arrivalSpeed="11.78" duration="89.00" routeLength="1013.10" waitSteps="0" timeLoss="16.59" rerouteNo="0" devices="tripinfo_up_6" vType="typeNS" speedFactor="1.00" vaporized=""/>
    <tripinfo id="down_3" depart="8.00" departLane="54o_0" departPos="7.10" departSpeed="0.00" departDelay="3.00" arrival="98.00" arrivalLane="53i_0" arrivalPos="10.00" arrivalSpeed="11.56" duration="90.00" routeLength="1013.10" waitSteps="0" timeLoss="18.44" rerouteNo="0" devices="tripinfo_down_3" vType="typeNS" speedFactor="1.00" vaporized=""/>
    <tripinfo id="up_8" depart="14.00" departLane="53o_0" departPos="7.10" departSpeed="0.00" departDelay="0.00" arrival="104.00" arrivalLane="54i_0" arrivalPos="10.00" arrivalSpeed="11.74" duration="90.00" routeLength="1013.10" waitSteps="0" timeLoss="18.22" rerouteNo="0" devices="tripinfo_up_8" vType="typeNS" speedFactor="1.00" vaporized=""/>
    <tripinfo id="down_9" depart="20.00" departLane="54o_0" departPos="7.10" departSpeed="0.00" departDelay="0.00" arrival="109.00" arrivalLane="53i_0" arrivalPos="10.00" arrivalSpeed="11.30" duration="89.00" routeLength="1013.10" waitSteps="0" timeLoss="17.34" rerouteNo="0" devices="tripinfo_down_9" vType="typeNS" speedFactor="1.00" vaporized=""/>
    <tripinfo id="up_11" depart="29.00" departLane="53o_0" departPos="7.10" departSpeed="0.00" departDelay="0.00" arrival="119.00" arrivalLane="54i_0" arrivalPos="10.00" arrivalSpeed="11.35" duration="90.00" routeLength="1013.10" waitSteps="0" timeLoss="18.24" rerouteNo="0" devices="tripinfo_up_11" vType="typeNS" speedFactor="1.00" vaporized=""/>
    <tripinfo id="up_13" depart="35.00" departLane="53o_0" departPos="7.10" departSpeed="0.00" departDelay="1.00" arrival="125.00" arrivalLane="54i_0" arrivalPos="10.00" arrivalSpeed="11.55" duration="90.00" routeLength="1013.10" waitSteps="0" timeLoss="18.25" rerouteNo="0" devices="tripinfo_up_13" vType="typeNS" speedFactor="1.00" vaporized=""/>
    <tripinfo id="up_15" depart="45.00" departLane="53o_0" departPos="7.10" departSpeed="0.00" departDelay="0.00" arrival="135.00" arrivalLane="54i_0" arrivalPos="10.00" arrivalSpeed="11.49" duration="90.00" routeLength="1013.10" waitSteps="0" timeLoss="18.30" rerouteNo="0" devices="tripinfo_up_15" vType="typeNS" speedFactor="1.00" vaporized=""/>
    <tripinfo id="up_17" depart="51.00" departLane="53o_0" departPos="7.10" departSpeed="0.00" departDelay="5.00" arrival="140.00" arrivalLane="54i_0" arrivalPos="10.00" arrivalSpeed="11.74" duration="89.00" routeLength="1013.10" waitSteps="0" timeLoss="17.18" rerouteNo="0" devices="tripinfo_up_17" vType="typeNS" speedFactor="1.00" vaporized=""/>
    <tripinfo id="down_20" depart="53.00" departLane="54o_0" departPos="7.10" departSpeed="0.00" departDelay="0.00" arrival="142.00" arrivalLane="53i_0" arrivalPos="10.00" arrivalSpeed="11.64" duration="89.00" routeLength="1013.10" waitSteps="0" timeLoss="17.45" rerouteNo="0" devices="tripinfo_down_20" vType="typeNS" speedFactor="1.00" vaporized=""/>
    <tripinfo id="up_18" depart="56.00" departLane="53o_0" departPos="7.10" departSpeed="0.00" departDelay="6.00" arrival="146.00" arrivalLane="54i_0" arrivalPos="10.00" arrivalSpeed="11.50" duration="90.00" routeLength="1013.10" waitSteps="0" timeLoss="17.92" rerouteNo="0" devices="tripinfo_up_18" vType="typeNS" speedFactor="1.00" vaporized=""/>
    <tripinfo id="up_23" depart="62.00" departLane="53o_0" departPos="7.10" departSpeed="0.00" departDelay="5.00" arrival="151.00" arrivalLane="54i_0" arrivalPos="10.00" arrivalSpeed="11.66" duration="89.00" routeLength="1013.10" waitSteps="0" timeLoss="16.97" rerouteNo="0" devices="tripinfo_up_23" vType="typeNS" speedFactor="1.00" vaporized=""/>
    <tripinfo id="up_24" depart="68.00" departLane="53o_0" departPos="7.10" departSpeed="0.00" departDelay="7.00" arrival="156.00" arrivalLane="54i_0" arrivalPos="10.00" arrivalSpeed="11.47" duration="88.00" routeLength="1013.10" waitSteps="0" timeLoss="16.34" rerouteNo="0" devices="tripinfo_up_24" vType="typeNS" speedFactor="1.00" vaporized=""/>
    <tripinfo id="up_33" depart="80.00" departLane="53o_0" departPos="7.10" departSpeed="0.00" departDelay="0.00" arrival="169.00" arrivalLane="54i_0" arrivalPos="10.00" arrivalSpeed="11.24" duration="89.00" routeLength="1013.10" waitSteps="0" timeLoss="16.64" rerouteNo="0" devices="tripinfo_up_33" vType="typeNS" speedFactor="1.00" vaporized=""/>
    <tripinfo id="down_36" depart="85.00" departLane="54o_0" departPos="7.10" departSpeed="0.00" departDelay="0.00" arrival="174.00" arrivalLane="53i_0" arrivalPos="10.00" arrivalSpeed="11.42" duration="89.00" routeLength="1013.10" waitSteps="0" timeLoss="16.64" rerouteNo="0" devices="tripinfo_down_36" vType="typeNS" speedFactor="1.00" vaporized=""/>
    <tripinfo id="up_37" depart="86.00" departLane="53o_0" departPos="7.10" departSpeed="0.00" departDelay="0.00" arrival="176.00" arrivalLane="54i_0" arrivalPos="10.00" arrivalSpeed="11.70" duration="90.00" routeLength="1013.10" waitSteps="0" timeLoss="18.32" rerouteNo="0" devices="tripinfo_up_37" vType="typeNS" speedFactor="1.00" vaporized=""/>
    <tripinfo id="down_40" depart="94.00" departLane="54o_0" departPos="7.10" departSpeed="0.00" departDelay="0.00" arrival="183.00" arrivalLane="53i_0" arrivalPos="10.00" arrivalSpeed="11.25" duration="89.00" routeLength="1013.10" waitSteps="0" timeLoss="17.33" rerouteNo="0" devices="tripinfo_down_40" vType="typeNS" speedFactor="1.00" vaporized=""/>
    <tripinfo id="down_44" depart="112.00" departLane="54o_0" departPos="7.10" departSpeed="0.00" departDelay="0.00" arrival="201.00" arrivalLane="53i_0" arrivalPos="10.00" arrivalSpeed="11.57" duration="89.00" routeLength="1013.10" waitSteps="0" timeLoss="17.19" rerouteNo="0" devices="tripinfo_down_44" vType="typeNS" speedFactor="1.00" vaporized=""/>
    <tripinfo id="down_47" depart="127.00" departLane="54o_0" departPos="7.10" departSpeed="0.00" departDelay="0.00" arrival="218.00" arrivalLane="53i_0" arrivalPos="10.00" arrivalSpeed="11.32" duration="91.00" routeLength="1013.10" waitSteps="0" timeLoss="18.57" rerouteNo="0" devices="tripinfo_down_47" vType="typeNS" speedFactor="1.00" vaporized=""/>
    <tripinfo id="up_51" depart="131.00" departLane="53o_0" departPos="7.10" departSpeed="0.00" departDelay="0.00" arrival="220.00" arrivalLane="54i_0" arrivalPos="10.00" arrivalSpeed="11.53" duration="89.00" routeLength="1013.10" waitSteps="0" timeLoss="17.49" rerouteNo="0" devices="tripinfo_up_51" vType="typeNS" speedFactor="1.00" vaporized=""/>
    <tripinfo id="down_50" depart="135.00" departLane="54o_0" departPos="7.10" departSpeed="0.00" departDelay="5.00" arrival="225.00" arrivalLane="53i_0" arrivalPos="10.00" arrivalSpeed="11.33" duration="90.00" routeLength="1013.10" waitSteps="0" timeLoss="18.39" rerouteNo="0" devices="tripinfo_down_50" vType="typeNS" speedFactor="1.00" vaporized=""/>
    <tripinfo id="up_53" depart="136.00" departLane="53o_0" departPos="7.10" departSpeed="0.00" departDelay="2.00" arrival="226.00" arrivalLane="54i_0" arrivalPos="10.00" arrivalSpeed="11.30" duration="90.00" routeLength="1013.10" waitSteps="0" timeLoss="18.18" rerouteNo="0" devices="tripinfo_up_53" vType="typeNS" speedFactor="1.00" vaporized=""/>
    <tripinfo id="down_54" depart="141.00" departLane="54o_0" departPos="7.10" departSpeed="0.00" departDelay="1.00" arrival="229.00" arrivalLane="53i_0" arrivalPos="10.00" arrivalSpeed="11.55" duration="88.00" routeLength="1013.10" waitSteps="0" timeLoss="16.27" rerouteNo="0" devices="tripinfo_down_54" vType="typeNS" speedFactor="1.00" vaporized=""/>
    <tripinfo id="up_59" depart="147.00" departLane="53o_0" departPos="7.10" departSpeed="0.00" departDelay="0.00" arrival="237.00" arrivalLane="54i_0" arrivalPos="10.00" arrivalSpeed="11.73" duration="90.00" routeLength="1013.10" waitSteps="0" timeLoss="18.21" rerouteNo="0" devices="tripinfo_up_59" vType="typeNS" speedFactor="1.00" vaporized=""/>
    <tripinfo id="down_56" depart="147.00" departLane="54o_0" departPos="7.10" departSpeed="0.00" departDelay="6.00" arrival="237.00" arrivalLane="53i_0" arrivalPos="10.00" arrivalSpeed="11.43" duration="90.00" routeLength="1013.10" waitSteps="0" timeLoss="18.20" rerouteNo="0" devices="tripinfo_down_56" vType="typeNS" speedFactor="1.00" vaporized=""/>
    <tripinfo id="up_60" depart="153.00" departLane="53o_0" departPos="7.10" departSpeed="0.00" departDelay="0.00" arrival="242.00" arrivalLane="54i_0" arrivalPos="10.00" arrivalSpeed="11.53" duration="89.00" routeLength="1013.10" waitSteps="0" timeLoss="17.31" rerouteNo="0" devices="tripinfo_up_60" vType="typeNS" speedFactor="1.00" vaporized=""/>
    <tripinfo id="down_62" depart="156.00" departLane="54o_0" departPos="7.10" departSpeed="0.00" departDelay="0.00" arrival="244.00" arrivalLane="53i_0" arrivalPos="10.00" arrivalSpeed="11.44" duration="88.00" routeLength="1013.10" waitSteps="0" timeLoss="15.76" rerouteNo="0" devices="tripinfo_down_62" vType="typeNS" speedFactor="1.00" vaporized=""/>
    <tripinfo id="up_63" depart="159.00" departLane="53o_0" departPos="7.10" departSpeed="0.00" departDelay="1.00" arrival="248.00" arrivalLane="54i_0" arrivalPos="10.00" arrivalSpeed="10.98" duration="89.00" routeLength="1013.10" waitSteps="0" timeLoss="17.15" rerouteNo="0" devices="tripinfo_up_63" vType="typeNS" speedFactor="1.00" vaporized=""/>
    <tripinfo id="up_64" depart="165.00" departLane="53o_0" departPos="7.10" departSpeed="0.00" departDelay="6.00" arrival="253.00" arrivalLane="54i_0" arrivalPos="10.00" arrivalSpeed="11.54" duration="88.00" routeLength="1013.10" waitSteps="0" timeLoss="16.20" rerouteNo="0" devices="tripinfo_up_64" vType="typeNS" speedFactor="1.00" vaporized=""/>
    <tripinfo id="up_65" depart="171.00" departLane="53o_0" departPos="7.10" departSpeed="0.00" departDelay="9.00" arrival="258.00" arrivalLane="54i_0" arrivalPos="10.00" arrivalSpeed="11.40" duration="87.00" routeLength="1013.10" waitSteps="0" timeLoss="15.54" rerouteNo="0" devices="tripinfo_up_65" vType="typeNS" speedFactor="1.00" vaporized=""/>
    <tripinfo id="down_68" depart="172.00" departLane="54o_0" departPos="7.10" departSpeed="0.00" departDelay="0.00" arrival="261.00" arrivalLane="53i_0" arrivalPos="10.00" arrivalSpeed="11.31" duration="89.00" routeLength="1013.10" waitSteps="0" timeLoss="17.19" rerouteNo="0" devices="tripinfo_down_68" vType="typeNS" speedFactor="1.00" vaporized=""/>
    <tripinfo id="up_69" depart="176.00" departLane="53o_0" departPos="7.10" departSpeed="0.00" departDelay="3.00" arrival="266.00" arrivalLane="54i_0" arrivalPos="10.00" arrivalSpeed="11.25" duration="90.00" routeLength="1013.10" waitSteps="0" timeLoss="18.19" rerouteNo="0" devices="tripinfo_up_69" vType="typeNS" speedFactor="1.00" vaporized=""/>
    <tripinfo id="down_71" depart="178.00" departLane="54o_0" departPos="7.10" departSpeed="0.00" departDelay="4.00" arrival="268.00" arrivalLane="53i_0" arrivalPos="10.00" arrivalSpeed="11.43" duration="90.00" routeLength="1013.10" waitSteps="0" timeLoss="18.24" rerouteNo="0" devices="tripinfo_down_71" vType="typeNS" speedFactor="1.00" vaporized=""/>
    <tripinfo id="up_75" depart="183.00" departLane="53o_0" departPos="7.10" departSpeed="0.00" departDelay="4.00" arrival="273.00" arrivalLane="54i_0" arrivalPos="10.00" arrivalSpeed="11.37" duration="90.00" routeLength="1013.10" waitSteps="0" timeLoss="18.32" rerouteNo="0" devices="tripinfo_up_75" vType="typeNS" speedFactor="1.00" vaporized=""/>
    <tripinfo id="down_78" depart="187.00" departLane="54o_0" departPos="7.10" departSpeed="0.00" departDelay="0.00" arrival="277.00" arrivalLane="53i_0" arrivalPos="10.00" arrivalSpeed="11.57" duration="90.00" routeLength="1013.10" waitSteps="0" timeLoss="17.65" rerouteNo="0" devices="tripinfo_down_78" vType="typeNS" speedFactor="1.00" vaporized=""/>
    <tripinfo id="up_82" depart="190.00" departLane="53o_0" departPos="7.10" departSpeed="0.00" departDelay="0.00" arrival="280.00" arrivalLane="54i_0" arrivalPos="10.00" arrivalSpeed="11.59" duration="90.00" routeLength="1013.10" waitSteps="0" timeLoss="18.04" rerouteNo="0" devices="tripinfo_up_82" vType="typeNS" speedFactor="1.00" vaporized=""/>
    <tripinfo id="up_84" depart="196.00" departLane="53o_0" departPos="7.10" departSpeed="0.00" departDelay="3.00" arrival="285.00" arrivalLane="54i_0" arrivalPos="10.00" arrivalSpeed="11.67" duration="89.00" routeLength="1013.10" waitSteps="0" timeLoss="17.14" rerouteNo="0" devices="tripinfo_up_84" vType="typeNS" speedFactor="1.00" vaporized=""/>
    <tripinfo id="up_86" depart="201.00" departLane="53o_0" departPos="7.10" departSpeed="0.00" departDelay="4.00" arrival="293.00" arrivalLane="54i_0" arrivalPos="10.00" arrivalSpeed="11.60" duration="92.00" routeLength="1013.10" waitSteps="1" timeLoss="19.84" rerouteNo="0" devices="tripinfo_up_86" vType="typeNS" speedFactor="1.00" vaporized=""/>
    <tripinfo id="up_87" depart="208.00" departLane="53o_0" departPos="7.10" departSpeed="0.00" departDelay="10.00" arrival="297.00" arrivalLane="54i_0" arrivalPos="10.00" arrivalSpeed="11.33" duration="89.00" routeLength="1013.10" waitSteps="0" timeLoss="17.18" rerouteNo="0" devices="tripinfo_up_87" vType="typeNS" speedFactor="1.00" vaporized=""/>
    <tripinfo id="up_90" depart="214.00" departLane="53o_0" departPos="7.10" departSpeed="0.00" departDelay="6.00" arrival="303.00" arrivalLane="54i_0" arrivalPos="10.00" arrivalSpeed="11.50" duration="89.00" routeLength="1013.10" waitSteps="0" timeLoss="17.35" rerouteNo="0" devices="tripinfo_up_90" vType="typeNS" speedFactor="1.00" vaporized=""/>
    <tripinfo id="up_92" depart="219.00" departLane="53o_0" departPos="7.10" departSpeed="0.00" departDelay="3.00" arrival="309.00" arrivalLane="54i_0" arrivalPos="10.00" arrivalSpeed="11.51" duration="90.00" routeLength="1013.10" waitSteps="1" timeLoss="18.52" rerouteNo="0" devices="tripinfo_up_92" vType="typeNS" speedFactor="1.00" vaporized=""/>
    <tripinfo id="down_96" depart="222.00" departLane="54o_0" departPos="7.10" departSpeed="0.00" departDelay="0.00" arrival="311.00" arrivalLane="53i_0" arrivalPos="10.00" arrivalSpeed="11.74" duration="89.00" routeLength="1013.10" waitSteps="0" timeLoss="17.52" rerouteNo="0" devices="tripinfo_down_96" vType="typeNS" speedFactor="1.00" vaporized=""/>
    <tripinfo id="up_94" depart="225.00" departLane="53o_0" departPos="7.10" departSpeed="0.00" departDelay="5.00" arrival="314.00" arrivalLane="54i_0" arrivalPos="10.00" arrivalSpeed="11.48" duration="89.00" routeLength="1013.10" waitSteps="0" timeLoss="17.21" rerouteNo="0" devices="tripinfo_up_94" vType="typeNS" speedFactor="1.00" vaporized=""/>
    <tripinfo id="down_98" depart="233.00" departLane="54o_0" departPos="7.10" departSpeed="0.00" departDelay="0.00" arrival="322.00" arrivalLane="53i_0" arrivalPos="10.00" arrivalSpeed="11.31" duration="89.00" routeLength="1013.10" waitSteps="0" timeLoss="17.27" rerouteNo="0" devices="tripinfo_down_98" vType="typeNS" speedFactor="1.00" vaporized=""/>
    <tripinfo id="down_100" depart="239.00" departLane="54o_0" departPos="7.10" departSpeed="0.00" departDelay="4.00" arrival="327.00" arrivalLane="53i_0" arrivalPos="10.00" arrivalSpeed="11.65" duration="88.00" routeLength="1013.10" waitSteps="0" timeLoss="16.40" rerouteNo="0" devices="tripinfo_down_100" vType="typeNS" speedFactor="1.00" vaporized=""/>
    <tripinfo id="up_102" depart="244.00" departLane="53o_0" departPos="7.10" departSpeed="0.00" departDelay="2.00" arrival="335.00" arrivalLane="54i_0" arrivalPos="10.00" arrivalSpeed="11.86" duration="91.00" routeLength="1013.10" waitSteps="0" timeLoss="18.60" rerouteNo="0" devices="tripinfo_up_102" vType="typeNS" speedFactor="1.00" vaporized=""/>
    <tripinfo id="up_108" depart="252.00" departLane="53o_0" departPos="7.10" departSpeed="0.00" departDelay="0.00" arrival="341.00" arrivalLane="54i_0" arrivalPos="10.00" arrivalSpeed="11.39" duration="89.00" routeLength="1013.10" waitSteps="0" timeLoss="17.19" rerouteNo="0" devices="tripinfo_up_108" vType="typeNS" speedFactor="1.00" vaporized=""/>
    <tripinfo id="down_110" depart="253.00" departLane="54o_0" departPos="7.10" departSpeed="0.00" departDelay="0.00" arrival="342.00" arrivalLane="53i_0" arrivalPos="10.00" arrivalSpeed="11.88" duration="89.00" routeLength="1013.10" waitSteps="0" timeLoss="17.36" rerouteNo="0" devices="tripinfo_down_110" vType="typeNS" speedFactor="1.00" vaporized=""/>
    <tripinfo id="up_111" depart="258.00" departLane="53o_0" departPos="7.10" departSpeed="0.00" departDelay="5.00" arrival="349.00" arrivalLane="54i_0" arrivalPos="10.00" arrivalSpeed="11.69" duration="91.00" routeLength="1013.10" waitSteps="0" timeLoss="18.84" rerouteNo="0" devices="tripinfo_up_111" vType="typeNS" speedFactor="1.00" vaporized=""/>
    <tripinfo id="down_114" depart="259.00" departLane="54o_0" departPos="7.10" departSpeed="0.00" departDelay="1.00" arrival="349.00" arrivalLane="53i_0" arrivalPos="10.00" arrivalSpeed="11.53" duration="90.00" routeLength="1013.10" waitSteps="0" timeLoss="18.00" rerouteNo="0" devices="tripinfo_down_114" vType="typeNS" speedFactor="1.00" vaporized=""/>
    <tripinfo id="up_115" depart="264.00" departLane="53o_0" departPos="7.10" departSpeed="0.00" departDelay="6.00" arrival="354.00" arrivalLane="54i_0" arrivalPos="10.00" arrivalSpeed="11.25" duration="90.00" routeLength="1013.10" waitSteps="0" timeLoss="18.05" rerouteNo="0" devices="tripinfo_up_115" vType="typeNS" speedFactor="1.00" vaporized=""/>
    <tripinfo id="down_116" depart="266.00" departLane="54o_0" departPos="7.10" departSpeed="0.00" departDelay="7.00" arrival="356.00" arrivalLane="53i_0" arrivalPos="10.00" arrivalSpeed="11.73" duration="90.00" routeLength="1013.10" waitSteps="0" timeLoss="18.17" rerouteNo="0" devices="tripinfo_down_116" vType="typeNS" speedFactor="1.00" vaporized=""/>
    <tripinfo id="up_118" depart="270.00" departLane="53o_0" departPos="7.10" departSpeed="0.00" departDelay="5.00" arrival="359.00" arrivalLane="54i_0" arrivalPos="10.00" arrivalSpeed="11.52" duration="89.00" routeLength="1013.10" waitSteps="0" timeLoss="17.21" rerouteNo="0" devices="tripinfo_up_118" vType="typeNS" speedFactor="1.00" vaporized=""/>
    <tripinfo id="up_119" depart="277.00" departLane="53o_0" departPos="7.10" departSpeed="0.00" departDelay="11.00" arrival="366.00" arrivalLane="54i_0" arrivalPos="10.00" arrivalSpeed="11.25" duration="89.00" routeLength="1013.10" waitSteps="0" timeLoss="16.79" rerouteNo="0" devices="tripinfo_up_119" vType="typeNS" speedFactor="1.00" vaporized=""/>
    <tripinfo id="down_124" depart="277.00" departLane="54o_0" departPos="7.10" departSpeed="0.00" departDelay="0.00" arrival="366.00" arrivalLane="53i_0" arrivalPos="10.00" arrivalSpeed="11.65" duration="89.00" routeLength="1013.10" waitSteps="0" timeLoss="17.05" rerouteNo="0" devices="tripinfo_down_124" vType="typeNS" speedFactor="1.00" vaporized=""/>
    <tripinfo id="up_120" depart="282.00" departLane="53o_0" departPos="7.10" departSpeed="0.00" departDelay="13.00" arrival="373.00" arrivalLane="54i_0" arrivalPos="10.00" arrivalSpeed="11.45" duration="91.00" routeLength="1013.10" waitSteps="0" timeLoss="19.12" rerouteNo="0" devices="tripinfo_up_120" vType="typeNS" speedFactor="1.00" vaporized=""/>
    <tripinfo id="down_127" depart="289.00" departLane="54o_0" departPos="7.10" departSpeed="0.00" departDelay="0.00" arrival="378.00" arrivalLane="53i_0" arrivalPos="10.00" arrivalSpeed="10.82" duration="89.00" routeLength="1013.10" waitSteps="0" timeLoss="17.21" rerouteNo="0" devices="tripinfo_down_127" vType="typeNS" speedFactor="1.00" vaporized=""/>
    <tripinfo id="up_121" depart="288.00" departLane="53o_0" departPos="7.10" departSpeed="0.00" departDelay="13.00" arrival="378.00" arrivalLane="54i_0" arrivalPos="10.00" arrivalSpeed="11.49" duration="90.00" routeLength="1013.10" waitSteps="0" timeLoss="18.30" rerouteNo="0" devices="tripinfo_up_121" vType="typeNS" speedFactor="1.00" vaporized=""/>
    <tripinfo id="up_123" depart="294.00" departLane="53o_0" departPos="7.10" departSpeed="0.00" departDelay="18.00" arrival="384.00" arrivalLane="54i_0" arrivalPos="10.00" arrivalSpeed="11.76" duration="90.00" routeLength="1013.10" waitSteps="0" timeLoss="18.15" rerouteNo="0" devices="tripinfo_up_123" vType="typeNS" speedFactor="1.00" vaporized=""/>
    <tripinfo id="down_129" depart="294.00" departLane="54o_0" departPos="7.10" departSpeed="0.00" departDelay="0.00" arrival="385.00" arrivalLane="53i_0" arrivalPos="10.00" arrivalSpeed="11.44" duration="91.00" routeLength="1013.10" waitSteps="1" timeLoss="19.55" rerouteNo="0" devices="tripinfo_down_129" vType="typeNS" speedFactor="1.00" vaporized=""/>
    <tripinfo id="up_128" depart="300.00" departLane="53o_0" departPos="7.10" departSpeed="0.00" departDelay="7.00" arrival="389.00" arrivalLane="54i_0" arrivalPos="10.00" arrivalSpeed="11.78" duration="89.00" routeLength="1013.10" waitSteps="0" timeLoss="17.54" rerouteNo="0" devices="tripinfo_up_128" vType="typeNS" speedFactor="1.00" vaporized=""/>
    <tripinfo id="down_133" depart="303.00" departLane="54o_0" departPos="7.10" departSpeed="0.00" departDelay="4.00" arrival="392.00" arrivalLane="53i_0" arrivalPos="10.00" arrivalSpeed="11.47" duration="89.00" routeLength="1013.10" waitSteps="0" timeLoss="17.38" rerouteNo="0" devices="tripinfo_down_133" vType="typeNS" speedFactor="1.00" vaporized=""/>
    <tripinfo id="up_130" depart="306.00" departLane="53o_0" departPos="7.10" departSpeed="0.00" departDelay="10.00" arrival="395.00" arrivalLane="54i_0" arrivalPos="10.00" arrivalSpeed="11.41" duration="89.00" routeLength="1013.10" waitSteps="0" timeLoss="17.25" rerouteNo="0" devices="tripinfo_up_130" vType="typeNS" speedFactor="1.00" vaporized=""/>
    <tripinfo id="left_0" depart="3.00" departLane="52o_0" departPos="5.10" departSpeed="0.00" departDelay="0.00" arrival="396.00" arrivalLane="51i_0" arrivalPos="10.00" arrivalSpeed="11.60" duration="393.00" routeLength="1015.10" waitSteps="301" timeLoss="318.23" rerouteNo="0" devices="tripinfo_left_0" vType="typeWE" speedFactor="1.00" vaporized=""/>
    <tripinfo id="down_138" depart="309.00" departLane="54o_0" departPos="7.10" departSpeed="0.00" departDelay="1.00" arrival="399.00" arrivalLane="53i_0" arrivalPos="10.00" arrivalSpeed="11.66" duration="90.00" routeLength="1013.10" waitSteps="0" timeLoss="17.67" rerouteNo="0" devices="tripinfo_down_138" vType="typeNS" speedFactor="1.00" vaporized=""/>
    <tripinfo id="right_4" depart="6.00" departLane="51o_0" departPos="5.10" departSpeed="0.00" departDelay="0.00" arrival="400.00" arrivalLane="52i_0" arrivalPos="10.00" arrivalSpeed="11.55" duration="394.00" routeLength="1015.10" waitSteps="301" timeLoss="319.32" rerouteNo="0" devices="tripinfo_right_4" vType="typeWE" speedFactor="1.00" vaporized=""/>
    <tripinfo id="up_136" depart="311.00" departLane="53o_0" departPos="7.10" departSpeed="0.00" departDelay="6.00" arrival="401.00" arrivalLane="54i_0" arrivalPos="10.00" arrivalSpeed="11.26" duration="90.00" routeLength="1013.10" waitSteps="0" timeLoss="17.88" rerouteNo="0" devices="tripinfo_up_136" vType="typeNS" speedFactor="1.00" vaporized=""/>
    <tripinfo id="down_141" depart="315.00" departLane="54o_0" departPos="7.10" departSpeed="0.00" departDelay="2.00" arrival="404.00" arrivalLane="53i_0" arrivalPos="10.00" arrivalSpeed="11.71" duration="89.00" routeLength="1013.10" waitSteps="0" timeLoss="16.97" rerouteNo="0" devices="tripinfo_down_141" vType="typeNS" speedFactor="1.00" vaporized=""/>
    <tripinfo id="up_140" depart="317.00" departLane="53o_0" departPos="7.10" departSpeed="0.00" departDelay="6.00" arrival="406.00" arrivalLane="54i_0" arrivalPos="10.00" arrivalSpeed="11.70" duration="89.00" routeLength="1013.10" waitSteps="0" timeLoss="17.23" rerouteNo="0" devices="tripinfo_up_140" vType="typeNS" speedFactor="1.00" vaporized=""/>
    <tripinfo id="down_143" depart="321.00" departLane="54o_0" departPos="7.10" departSpeed="0.00" departDelay="5.00" arrival="410.00" arrivalLane="53i_0" arrivalPos="10.00" arrivalSpeed="11.62" duration="89.00" routeLength="1013.10" waitSteps="0" timeLoss="17.30" rerouteNo="0" devices="tripinfo_down_143" vType="typeNS" speedFactor="1.00" vaporized=""/>
    <tripinfo id="down_144" depart="327.00" departLane="54o_0" departPos="7.10" departSpeed="0.00" departDelay="10.00" arrival="416.00" arrivalLane="53i_0" arrivalPos="10.00" arrivalSpeed="11.78" duration="89.00" routeLength="1013.10" waitSteps="0" timeLoss="17.18" rerouteNo="0" devices="tripinfo_down_144" vType="typeNS" speedFactor="1.00" vaporized=""/>
    <tripinfo id="up_147" depart="332.00" departLane="53o_0" departPos="7.10" departSpeed="0.00" departDelay="0.00" arrival="421.00" arrivalLane="54i_0" arrivalPos="10.00" arrivalSpeed="11.22" duration="89.00" routeLength="1013.10" waitSteps="0" timeLoss="17.21" rerouteNo="0" devices="tripinfo_up_147" vType="typeNS" speedFactor="1.00" vaporized=""/>
    <tripinfo id="down_146" depart="335.00" departLane="54o_0" departPos="7.10" departSpeed="0.00" departDelay="3.00" arrival="424.00" arrivalLane="53i_0" arrivalPos="10.00" arrivalSpeed="11.52" duration="89.00" routeLength="1013.10" waitSteps="0" timeLoss="17.24" rerouteNo="0" devices="tripinfo_down_146" vType="typeNS" speedFactor="1.00" vaporized=""/>
    <tripinfo id="down_148" depart="341.00" departLane="54o_0" departPos="7.10" departSpeed="0.00" departDelay="8.00" arrival="430.00" arrivalLane="53i_0" arrivalPos="10.00" arrivalSpeed="11.61" duration="89.00" routeLength="1013.10" waitSteps="0" timeLoss="17.38" rerouteNo="0" devices="tripinfo_down_148" vType="typeNS" speedFactor="1.00" vaporized=""/>
    <tripinfo id="up_155" depart="349.00" departLane="53o_0" departPos="7.10" departSpeed="0.00" departDelay="1.00" arrival="438.00" arrivalLane="54i_0" arrivalPos="10.00" arrivalSpeed="11.55" duration="89.00" routeLength="1013.10" waitSteps="0" timeLoss="17.21" rerouteNo="0" devices="tripinfo_up_155" vType="typeNS" speedFactor="1.00" vaporized=""/>
    <tripinfo id="down_150" depart="349.00" departLane="54o_0" departPos="7.10" departSpeed="0.00" departDelay="11.00" arrival="439.00" arrivalLane="53i_0" arrivalPos="10.00" arrivalSpeed="11.46" duration="90.00" routeLength="1013.10" waitSteps="0" timeLoss="18.32" rerouteNo="0" devices="tripinfo_down_150" vType="typeNS" speedFactor="1.00" vaporized=""/>
    <tripinfo id="up_157" depart="356.00" departLane="53o_0" departPos="7.10" departSpeed="0.00" departDelay="7.00" arrival="445.00" arrivalLane="54i_0" arrivalPos="10.00" arrivalSpeed="11.63" duration="89.00" routeLength="1013.10" waitSteps="0" timeLoss="17.01" rerouteNo="0" devices="tripinfo_up_157" vType="typeNS" speedFactor="1.00" vaporized=""/>
    <tripinfo id="down_151" depart="355.00" departLane="54o_0" departPos="7.10" departSpeed="0.00" departDelay="15.00" arrival="445.00" arrivalLane="53i_0" arrivalPos="10.00" arrivalSpeed="11.23" duration="90.00" routeLength="1013.10" waitSteps="0" timeLoss="18.24" rerouteNo="0" devices="tripinfo_down_151" vType="typeNS" speedFactor="1.00" vaporized=""/>
    <tripinfo id="down_154" depart="361.00" departLane="54o_0" departPos="7.10" departSpeed="0.00" departDelay="14.00" arrival="450.00" arrivalLane="53i_0" arrivalPos="10.00" arrivalSpeed="11.47" duration="89.00" routeLength="1013.10" waitSteps="0" timeLoss="17.28" rerouteNo="0" devices="tripinfo_down_154" vType="typeNS" speedFactor="1.00" vaporized=""/>
    <tripinfo id="down_159" depart="366.00" departLane="54o_0" departPos="7.10" departSpeed="0.00" departDelay="15.00" arrival="455.00" arrivalLane="53i_0" arrivalPos="10.00" arrivalSpeed="11.40" duration="89.00" routeLength="1013.10" waitSteps="1" timeLoss="17.21" rerouteNo="0" devices="tripinfo_down_159" vType="typeNS" speedFactor="1.00" vaporized=""/>
    <tripinfo id="up_168" depart="371.00" departLane="53o_0" departPos="7.10" departSpeed="0.00" departDelay="0.00" arrival="460.00" arrivalLane="54i_0" arrivalPos="10.00" arrivalSpeed="11.63" duration="89.00" routeLength="1013.10" waitSteps="0" timeLoss="17.32" rerouteNo="0" devices="tripinfo_up_168" vType="typeNS" speedFactor="1.00" vaporized=""/>