<?xml version="1.0" encoding="UTF-8"?>

<!-- generated on Thu Sep  7 10:56:30 2017 by SUMO gui Version 0.30.0
<?xml version="1.0" encoding="UTF-8"?>

<configuration xmlns:xsi="http://www.w3.org/2001/XMLSchema-instance" xsi:noNamespaceSchemaLocation="http://sumo.dlr.de/xsd/sumoConfiguration.xsd">

    <input>
        <net-file value="data/cross.net.xml"/>
        <route-files value="data/cross.rou.xml"/>
        <additional-files value="data/cross1.det.xml"/>
    </input>

    <output>
        <tripinfo-output value="tripinfo.xml"/>
    </output>

    <time>
        <begin value="0"/>
    </time>

    <report>
        <verbose value="true"/>
        <no-step-log value="true"/>
    </report>

    <traci_server>
        <remote-port value="51310"/>
    </traci_server>

    <gui_only>
        <gui-settings-file value="data/gui.settings.xml"/>
    </gui_only>

</configuration>
-->

<tripinfos xmlns:xsi="http://www.w3.org/2001/XMLSchema-instance" xsi:noNamespaceSchemaLocation="http://sumo.dlr.de/xsd/tripinfo_file.xsd">
    <tripinfo id="right_0" depart="0.00" departLane="51o_0" departPos="5.10" departSpeed="0.00" departDelay="0.00" arrival="91.00" arrivalLane="52i_0" arrivalPos="10.00" arrivalSpeed="11.25" duration="91.00" routeLength="1015.10" waitSteps="0" timeLoss="14.76" rerouteNo="0" devices="tripinfo_right_0" vType="typeWE" speedFactor="1.00" vaporized=""/>
    <tripinfo id="left_1" depart="2.00" departLane="52o_0" departPos="5.10" departSpeed="0.00" departDelay="0.00" arrival="94.00" arrivalLane="51i_0" arrivalPos="10.00" arrivalSpeed="11.36" duration="92.00" routeLength="1015.10" waitSteps="0" timeLoss="15.30" rerouteNo="0" devices="tripinfo_left_1" vType="typeWE" speedFactor="1.00" vaporized=""/>
    <tripinfo id="right_3" depart="7.00" departLane="51o_0" departPos="5.10" departSpeed="0.00" departDelay="0.00" arrival="98.00" arrivalLane="52i_0" arrivalPos="10.00" arrivalSpeed="11.42" duration="91.00" routeLength="1015.10" waitSteps="0" timeLoss="14.25" rerouteNo="0" devices="tripinfo_right_3" vType="typeWE" speedFactor="1.00" vaporized=""/>
    <tripinfo id="left_2" depart="7.00" departLane="52o_0" departPos="5.10" departSpeed="0.00" departDelay="2.00" arrival="98.00" arrivalLane="51i_0" arrivalPos="10.00" arrivalSpeed="11.52" duration="91.00" routeLength="1015.10" waitSteps="0" timeLoss="14.78" rerouteNo="0" devices="tripinfo_left_2" vType="typeWE" speedFactor="1.00" vaporized=""/>
    <tripinfo id="left_4" depart="12.00" departLane="52o_0" departPos="5.10" departSpeed="0.00" departDelay="5.00" arrival="103.00" arrivalLane="51i_0" arrivalPos="10.00" arrivalSpeed="11.34" duration="91.00" routeLength="1015.10" waitSteps="0" timeLoss="14.64" rerouteNo="0" devices="tripinfo_left_4" vType="typeWE" speedFactor="1.00" vaporized=""/>
    <tripinfo id="right_6" depart="12.00" departLane="51o_0" departPos="5.10" departSpeed="0.00" departDelay="2.00" arrival="104.00" arrivalLane="52i_0" arrivalPos="10.00" arrivalSpeed="11.51" duration="92.00" routeLength="1015.10" waitSteps="0" timeLoss="15.65" rerouteNo="0" devices="tripinfo_right_6" vType="typeWE" speedFactor="1.00" vaporized=""/>
    <tripinfo id="left_5" depart="17.00" departLane="52o_0" departPos="5.10" departSpeed="0.00" departDelay="8.00" arrival="107.00" arrivalLane="51i_0" arrivalPos="10.00" arrivalSpeed="11.50" duration="90.00" routeLength="1015.10" waitSteps="0" timeLoss="13.87" rerouteNo="0" devices="tripinfo_left_5" vType="typeWE" speedFactor="1.00" vaporized=""/>
    <tripinfo id="right_9" depart="17.00" departLane="51o_0" departPos="5.10" departSpeed="0.00" departDelay="3.00" arrival="108.00" arrivalLane="52i_0" arrivalPos="10.00" arrivalSpeed="11.69" duration="91.00" routeLength="1015.10" waitSteps="0" timeLoss="14.58" rerouteNo="0" devices="tripinfo_right_9" vType="typeWE" speedFactor="1.00" vaporized=""/>
    <tripinfo id="right_12" depart="22.00" departLane="51o_0" departPos="5.10" departSpeed="0.00" departDelay="6.00" arrival="113.00" arrivalLane="52i_0" arrivalPos="10.00" arrivalSpeed="11.69" duration="91.00" routeLength="1015.10" waitSteps="0" timeLoss="14.57" rerouteNo="0" devices="tripinfo_right_12" vType="typeWE" speedFactor="1.00" vaporized=""/>
    <tripinfo id="left_7" depart="22.00" departLane="52o_0" departPos="5.10" departSpeed="0.00" departDelay="11.00" arrival="114.00" arrivalLane="51i_0" arrivalPos="10.00" arrivalSpeed="11.44" duration="92.00" routeLength="1015.10" waitSteps="0" timeLoss="15.59" rerouteNo="0" devices="tripinfo_left_7" vType="typeWE" speedFactor="1.00" vaporized=""/>
    <tripinfo id="right_14" depart="27.00" departLane="51o_0" departPos="5.10" departSpeed="0.00" departDelay="9.00" arrival="166.00" arrivalLane="52i_0" arrivalPos="10.00" arrivalSpeed="11.70" duration="139.00" routeLength="1015.10" waitSteps="38" timeLoss="62.94" rerouteNo="0" devices="tripinfo_right_14" vType="typeWE" speedFactor="1.00" vaporized=""/>
    <tripinfo id="left_8" depart="27.00" departLane="52o_0" departPos="5.10" departSpeed="0.00" departDelay="15.00" arrival="167.00" arrivalLane="51i_0" arrivalPos="10.00" arrivalSpeed="11.51" duration="140.00" routeLength="1015.10" waitSteps="38" timeLoss="63.78" rerouteNo="0" devices="tripinfo_left_8" vType="typeWE" speedFactor="1.00" vaporized=""/>
    <tripinfo id="right_16" depart="32.00" departLane="51o_0" departPos="5.10" departSpeed="0.00" departDelay="13.00" arrival="169.00" arrivalLane="52i_0" arrivalPos="10.00" arrivalSpeed="11.73" duration="137.00" routeLength="1015.10" waitSteps="34" timeLoss="60.98" rerouteNo="0" devices="tripinfo_right_16" vType="typeWE" speedFactor="1.00" vaporized=""/>
    <tripinfo id="left_10" depart="32.00" departLane="52o_0" departPos="5.10" departSpeed="0.00" departDelay="18.00" arrival="169.00" arrivalLane="51i_0" arrivalPos="10.00" arrivalSpeed="10.42" duration="137.00" routeLength="1015.10" waitSteps="34" timeLoss="60.95" rerouteNo="0" devices="tripinfo_left_10" vType="typeWE" speedFactor="1.00" vaporized=""/>
    <tripinfo id="right_17" depart="37.00" departLane="51o_0" departPos="5.10" departSpeed="0.00" departDelay="17.00" arrival="171.00" arrivalLane="52i_0" arrivalPos="10.00" arrivalSpeed="11.52" duration="134.00" routeLength="1015.10" waitSteps="28" timeLoss="58.02" rerouteNo="0" devices="tripinfo_right_17" vType="typeWE" speedFactor="1.00" vaporized=""/>
    <tripinfo id="left_11" depart="37.00" departLane="52o_0" departPos="5.10" departSpeed="0.00" departDelay="22.00" arrival="171.00" arrivalLane="51i_0" arrivalPos="10.00" arrivalSpeed="11.23" duration="134.00" routeLength="1015.10" waitSteps="30" timeLoss="57.96" rerouteNo="0" devices="tripinfo_left_11" vType="typeWE" speedFactor="1.00" vaporized=""/>
    <tripinfo id="right_19" depart="42.00" departLane="51o_0" departPos="5.10" departSpeed="0.00" departDelay="20.00" arrival="173.00" arrivalLane="52i_0" arrivalPos="10.00" arrivalSpeed="11.76" duration="131.00" routeLength="1015.10" waitSteps="27" timeLoss="54.86" rerouteNo="0" devices="tripinfo_right_19" vType="typeWE" speedFactor="1.00" vaporized=""/>
    <tripinfo id="left_13" depart="42.00" departLane="52o_0" departPos="5.10" departSpeed="0.00" departDelay="26.00" arrival="173.00" arrivalLane="51i_0" arrivalPos="10.00" arrivalSpeed="10.64" duration="131.00" routeLength="1015.10" waitSteps="25" timeLoss="55.01" rerouteNo="0" devices="tripinfo_left_13" vType="typeWE" speedFactor="1.00" vaporized=""/>
    <tripinfo id="left_15" depart="47.00" departLane="52o_0" departPos="5.10" departSpeed="0.00" departDelay="29.00" arrival="175.00" arrivalLane="51i_0" arrivalPos="10.00" arrivalSpeed="10.58" duration="128.00" routeLength="1015.10" waitSteps="23" timeLoss="51.79" rerouteNo="0" devices="tripinfo_left_15" vType="typeWE" speedFactor="1.00" vaporized=""/>
    <tripinfo id="right_20" depart="48.00" departLane="51o_0" departPos="5.10" departSpeed="0.00" departDelay="25.00" arrival="176.00" arrivalLane="52i_0" arrivalPos="10.00" arrivalSpeed="11.73" duration="128.00" routeLength="1015.10" waitSteps="23" timeLoss="51.63" rerouteNo="0" devices="tripinfo_right_20" vType="typeWE" speedFactor="1.00" vaporized=""/>
    <tripinfo id="left_18" depart="53.00" departLane="52o_0" departPos="5.10" departSpeed="0.00" departDelay="33.00" arrival="177.00" arrivalLane="51i_0" arrivalPos="10.00" arrivalSpeed="11.15" duration="124.00" routeLength="1015.10" waitSteps="19" timeLoss="47.98" rerouteNo="0" devices="tripinfo_left_18" vType="typeWE" speedFactor="1.00" vaporized=""/>
    <tripinfo id="right_21" depart="53.00" departLane="51o_0" departPos="5.10" departSpeed="0.00" departDelay="29.00" arrival="178.00" arrivalLane="52i_0" arrivalPos="10.00" arrivalSpeed="9.90" duration="125.00" routeLength="1015.10" waitSteps="19" timeLoss="48.87" rerouteNo="0" devices="tripinfo_right_21" vType="typeWE" speedFactor="1.00" vaporized=""/>
    <tripinfo id="left_22" depart="58.00" departLane="52o_0" departPos="5.10" departSpeed="0.00" departDelay="34.00" arrival="179.00" arrivalLane="51i_0" arrivalPos="10.00" arrivalSpeed="10.87" duration="121.00" routeLength="1015.10" waitSteps="15" timeLoss="44.92" rerouteNo="0" devices="tripinfo_left_22" vType="typeWE" speedFactor="1.00" vaporized=""/>
    <tripinfo id="right_23" depart="58.00" departLane="51o_0" departPos="5.10" departSpeed="0.00" departDelay="33.00" arrival="180.00" arrivalLane="52i_0" arrivalPos="10.00" arrivalSpeed="9.25" duration="122.00" routeLength="1015.10" waitSteps="16" timeLoss="45.86" rerouteNo="0" devices="tripinfo_right_23" vType="typeWE" speedFactor="1.00" vaporized=""/>
    <tripinfo id="left_26" depart="63.00" departLane="52o_0" departPos="5.10" departSpeed="0.00" departDelay="36.00" arrival="181.00" arrivalLane="51i_0" arrivalPos="10.00" arrivalSpeed="10.81" duration="118.00" routeLength="1015.10" waitSteps="12" timeLoss="41.90" rerouteNo="0" devices="tripinfo_left_26" vType="typeWE" speedFactor="1.00" vaporized=""/>
    <tripinfo id="right_24" depart="63.00" departLane="51o_0" departPos="5.10" departSpeed="0.00" departDelay="37.00" arrival="182.00" arrivalLane="52i_0" arrivalPos="10.00" arrivalSpeed="9.91" duration="119.00" routeLength="1015.10" waitSteps="12" timeLoss="42.74" rerouteNo="0" devices="tripinfo_right_24" vType="typeWE" speedFactor="1.00" vaporized=""/>
    <tripinfo id="left_28" depart="68.00" departLane="52o_0" departPos="5.10" departSpeed="0.00" departDelay="40.00" arrival="183.00" arrivalLane="51i_0" arrivalPos="10.00" arrivalSpeed="10.58" duration="115.00" routeLength="1015.10" waitSteps="9" timeLoss="38.88" rerouteNo="0" devices="tripinfo_left_28" vType="typeWE" speedFactor="1.00" vaporized=""/>
    <tripinfo id="right_25" depart="69.00" departLane="51o_0" departPos="5.10" departSpeed="0.00" departDelay="42.00" arrival="184.00" arrivalLane="52i_0" arrivalPos="10.00" arrivalSpeed="9.96" duration="115.00" routeLength="1015.10" waitSteps="9" timeLoss="38.66" rerouteNo="0" devices="tripinfo_right_25" vType="typeWE" speedFactor="1.00" vaporized=""/>
    <tripinfo id="left_29" depart="73.00" departLane="52o_0" departPos="5.10" departSpeed="0.00" departDelay="44.00" arrival="185.00" arrivalLane="51i_0" arrivalPos="10.00" arrivalSpeed="10.31" duration="112.00" routeLength="1015.10" waitSteps="5" timeLoss="35.83" rerouteNo="0" devices="tripinfo_left_29" vType="typeWE" speedFactor="1.00" vaporized=""/>
    <tripinfo id="right_27" depart="74.00" departLane="51o_0" departPos="5.10" departSpeed="0.00" departDelay="46.00" arrival="186.00" arrivalLane="52i_0" arrivalPos="10.00" arrivalSpeed="9.13" duration="112.00" routeLength="1015.10" waitSteps="5" timeLoss="35.81" rerouteNo="0" devices="tripinfo_right_27" vType="typeWE" speedFactor="1.00" vaporized=""/>
    <tripinfo id="left_33" depart="78.00" departLane="52o_0" departPos="5.10" departSpeed="0.00" departDelay="45.00" arrival="187.00" arrivalLane="51i_0" arrivalPos="10.00" arrivalSpeed="10.26" duration="109.00" routeLength="1015.10" waitSteps="1" timeLoss="32.83" rerouteNo="0" devices="tripinfo_left_33" vType="typeWE" speedFactor="1.00" vaporized=""/>
    <tripinfo id="right_30" depart="79.00" departLane="51o_0" departPos="5.10" departSpeed="0.00" departDelay="49.00" arrival="188.00" arrivalLane="52i_0" arrivalPos="10.00" arrivalSpeed="9.70" duration="109.00" routeLength="1015.10" waitSteps="1" timeLoss="32.74" rerouteNo="0" devices="tripinfo_right_30" vType="typeWE" speedFactor="1.00" vaporized=""/>
    <tripinfo id="left_35" depart="84.00" departLane="52o_0" departPos="5.10" departSpeed="0.00" departDelay="50.00" arrival="189.00" arrivalLane="51i_0" arrivalPos="10.00" arrivalSpeed="9.64" duration="105.00" routeLength="1015.10" waitSteps="0" timeLoss="28.84" rerouteNo="0" devices="tripinfo_left_35" vType="typeWE" speedFactor="1.00" vaporized=""/>
    <tripinfo id="right_31" depart="84.00" departLane="51o_0" departPos="5.10" departSpeed="0.00" departDelay="53.00" arrival="190.00" arrivalLane="52i_0" arrivalPos="10.00" arrivalSpeed="9.60" duration="106.00" routeLength="1015.10" waitSteps="0" timeLoss="29.77" rerouteNo="0" devices="tripinfo_right_31" vType="typeWE" speedFactor="1.00" vaporized=""/>
    <tripinfo id="right_32" depart="89.00" departLane="51o_0" departPos="5.10" departSpeed="0.00" departDelay="56.00" arrival="240.00" arrivalLane="52i_0" arrivalPos="10.00" arrivalSpeed="11.69" duration="151.00" routeLength="1015.10" waitSteps="40" timeLoss="74.56" rerouteNo="0" devices="tripinfo_right_32" vType="typeWE" speedFactor="1.00" vaporized=""/>
    <tripinfo id="left_36" depart="91.00" departLane="52o_0" departPos="5.10" departSpeed="0.00" departDelay="56.00" arrival="241.00" arrivalLane="51i_0" arrivalPos="10.00" arrivalSpeed="11.19" duration="150.00" routeLength="1015.10" waitSteps="41" timeLoss="73.44" rerouteNo="0" devices="tripinfo_left_36" vType="typeWE" speedFactor="1.00" vaporized=""/>
    <tripinfo id="right_34" depart="94.00" departLane="51o_0" departPos="5.10" departSpeed="0.00" departDelay="60.00" arrival="243.00" arrivalLane="52i_0" arrivalPos="10.00" arrivalSpeed="11.50" duration="149.00" routeLength="1015.10" waitSteps="39" timeLoss="72.40" rerouteNo="0" devices="tripinfo_right_34" vType="typeWE" speedFactor="1.00" vaporized=""/>
    <tripinfo id="left_38" depart="98.00" departLane="52o_0" departPos="5.10" departSpeed="0.00" departDelay="62.00" arrival="243.00" arrivalLane="51i_0" arrivalPos="10.00" arrivalSpeed="9.65" duration="145.00" routeLength="1015.10" waitSteps="40" timeLoss="68.84" rerouteNo="0" devices="tripinfo_left_38" vType="typeWE" speedFactor="1.00" vaporized=""/>
    <tripinfo id="right_37" depart="99.00" departLane="51o_0" departPos="5.10" departSpeed="0.00" departDelay="63.00" arrival="245.00" arrivalLane="52i_0" arrivalPos="10.00" arrivalSpeed="8.45" duration="146.00" routeLength="1015.10" waitSteps="39" timeLoss="69.93" rerouteNo="0" devices="tripinfo_right_37" vType="typeWE" speedFactor="1.00" vaporized=""/>
    <tripinfo id="left_40" depart="104.00" departLane="52o_0" departPos="5.10" departSpeed="0.00" departDelay="67.00" arrival="245.00" arrivalLane="51i_0" arrivalPos="10.00" arrivalSpeed="9.85" duration="141.00" routeLength="1015.10" waitSteps="38" timeLoss="64.87" rerouteNo="0" devices="tripinfo_left_40" vType="typeWE" speedFactor="1.00" vaporized=""/>
    <tripinfo id="right_39" depart="104.00" departLane="51o_0" departPos="5.10" departSpeed="0.00" departDelay="67.00" arrival="247.00" arrivalLane="52i_0" arrivalPos="10.00" arrivalSpeed="9.27" duration="143.00" routeLength="1015.10" waitSteps="37" timeLoss="66.86" rerouteNo="0" devices="tripinfo_right_39" vType="typeWE" speedFactor="1.00" vaporized=""/>
    <tripinfo id="left_42" depart="109.00" departLane="52o_0" departPos="5.10" departSpeed="0.00" departDelay="71.00" arrival="247.00" arrivalLane="51i_0" arrivalPos="10.00" arrivalSpeed="11.44" duration="138.00" routeLength="1015.10" waitSteps="35" timeLoss="62.03" rerouteNo="0" devices="tripinfo_left_42" vType="typeWE" speedFactor="1.00" vaporized=""/>
    <tripinfo id="right_41" depart="109.00" departLane="51o_0" departPos="5.10" departSpeed="0.00" departDelay="71.00" arrival="249.00" arrivalLane="52i_0" arrivalPos="10.00" arrivalSpeed="9.38" duration="140.00" routeLength="1015.10" waitSteps="35" timeLoss="63.80" rerouteNo="0" devices="tripinfo_right_41" vType="typeWE" speedFactor="1.00" vaporized=""/>
    <tripinfo id="left_44" depart="114.00" departLane="52o_0" departPos="5.10" departSpeed="0.00" departDelay="72.00" arrival="249.00" arrivalLane="51i_0" arrivalPos="10.00" arrivalSpeed="11.40" duration="135.00" routeLength="1015.10" waitSteps="31" timeLoss="58.96" rerouteNo="0" devices="tripinfo_left_44" vType="typeWE" speedFactor="1.00" vaporized=""/>
    <tripinfo id="left_47" depart="119.00" departLane="52o_0" departPos="5.10" departSpeed="0.00" departDelay="75.00" arrival="251.00" arrivalLane="51i_0" arrivalPos="10.00" arrivalSpeed="10.90" duration="132.00" routeLength="1015.10" waitSteps="29" timeLoss="55.92" rerouteNo="0" devices="tripinfo_left_47" vType="typeWE" speedFactor="1.00" vaporized=""/>
    <tripinfo id="right_43" depart="114.00" departLane="51o_0" departPos="5.10" departSpeed="0.00" departDelay="73.00" arrival="251.00" arrivalLane="52i_0" arrivalPos="10.00" arrivalSpeed="9.40" duration="137.00" routeLength="1015.10" waitSteps="30" timeLoss="60.93" rerouteNo="0" devices="tripinfo_right_43" vType="typeWE" speedFactor="1.00" vaporized=""/>
    <tripinfo id="right_45" depart="119.00" departLane="51o_0" departPos="5.10" departSpeed="0.00" departDelay="76.00" arrival="253.00" arrivalLane="52i_0" arrivalPos="10.00" arrivalSpeed="9.61" duration="134.00" routeLength="1015.10" waitSteps="29" timeLoss="57.88" rerouteNo="0" devices="tripinfo_right_45" vType="typeWE" speedFactor="1.00" vaporized=""/>
    <tripinfo id="left_49" depart="124.00" departLane="52o_0" departPos="5.10" departSpeed="0.00" departDelay="79.00" arrival="253.00" arrivalLane="51i_0" arrivalPos="10.00" arrivalSpeed="11.44" duration="129.00" routeLength="1015.10" waitSteps="23" timeLoss="53.09" rerouteNo="0" devices="tripinfo_left_49" vType="typeWE" speedFactor="1.00" vaporized=""/>
    <tripinfo id="right_46" depart="124.00" departLane="51o_0" departPos="5.10" departSpeed="0.00" departDelay="80.00" arrival="255.00" arrivalLane="52i_0" arrivalPos="10.00" arrivalSpeed="10.48" duration="131.00" routeLength="1015.10" waitSteps="26" timeLoss="54.92" rerouteNo="0" devices="tripinfo_right_46" vType="typeWE" speedFactor="1.00" vaporized=""/>
    <tripinfo id="left_50" depart="129.00" departLane="52o_0" departPos="5.10" departSpeed="0.00" departDelay="83.00" arrival="255.00" arrivalLane="51i_0" arrivalPos="10.00" arrivalSpeed="11.15" duration="126.00" routeLength="1015.10" waitSteps="19" timeLoss="49.97" rerouteNo="0" devices="tripinfo_left_50" vType="typeWE" speedFactor="1.00" vaporized=""/>
    <tripinfo id="right_48" depart="129.00" departLane="51o_0" departPos="5.10" departSpeed="0.00" departDelay="84.00" arrival="257.00" arrivalLane="52i_0" arrivalPos="10.00" arrivalSpeed="10.43" duration="128.00" routeLength="1015.10" waitSteps="22" timeLoss="51.83" rerouteNo="0" devices="tripinfo_right_48" vType="typeWE" speedFactor="1.00" vaporized=""/>
    <tripinfo id="left_52" depart="134.00" departLane="52o_0" departPos="5.10" departSpeed="0.00" departDelay="87.00" arrival="257.00" arrivalLane="51i_0" arrivalPos="10.00" arrivalSpeed="10.91" duration="123.00" routeLength="1015.10" waitSteps="17" timeLoss="46.85" rerouteNo="0" devices="tripinfo_left_52" vType="typeWE" speedFactor="1.00" vaporized=""/>
    <tripinfo id="right_51" depart="134.00" departLane="51o_0" departPos="5.10" departSpeed="0.00" departDelay="87.00" arrival="259.00" arrivalLane="52i_0" arrivalPos="10.00" arrivalSpeed="10.80" duration="125.00" routeLength="1015.10" waitSteps="18" timeLoss="49.01" rerouteNo="0" devices="tripinfo_right_51" vType="typeWE" speedFactor="1.00" vaporized=""/>
    <tripinfo id="left_53" depart="140.00" departLane="52o_0" departPos="5.10" departSpeed="0.00" departDelay="92.00" arrival="259.00" arrivalLane="51i_0" arrivalPos="10.00" arrivalSpeed="10.26" duration="119.00" routeLength="1015.10" waitSteps="13" timeLoss="42.89" rerouteNo="0" devices="tripinfo_left_53" vType="typeWE" speedFactor="1.00" vaporized=""/>
    <tripinfo id="right_54" depart="139.00" departLane="51o_0" departPos="5.10" departSpeed="0.00" departDelay="90.00" arrival="261.00" arrivalLane="52i_0" arrivalPos="10.00" arrivalSpeed="10.83" duration="122.00" routeLength="1015.10" waitSteps="14" timeLoss="46.04" rerouteNo="0" devices="tripinfo_right_54" vType="typeWE" speedFactor="1.00" vaporized=""/>
    <tripinfo id="left_56" depart="145.00" departLane="52o_0" departPos="5.10" departSpeed="0.00" departDelay="95.00" arrival="261.00" arrivalLane="51i_0" arrivalPos="10.00" arrivalSpeed="10.27" duration="116.00" routeLength="1015.10" waitSteps="10" timeLoss="39.85" rerouteNo="0" devices="tripinfo_left_56" vType="typeWE" speedFactor="1.00" vaporized=""/>
    <tripinfo id="right_55" depart="144.00" departLane="51o_0" departPos="5.10" departSpeed="0.00" departDelay="94.00" arrival="263.00" arrivalLane="52i_0" arrivalPos="10.00" arrivalSpeed="10.44" duration="119.00" routeLength="1015.10" waitSteps="11" timeLoss="42.76" rerouteNo="0" devices="tripinfo_right_55" vType="typeWE" speedFactor="1.00" vaporized=""/>
    <tripinfo id="left_58" depart="150.00" departLane="52o_0" departPos="5.10" departSpeed="0.00" departDelay="98.00" arrival="263.00" arrivalLane="51i_0" arrivalPos="10.00" arrivalSpeed="9.64" duration="113.00" routeLength="1015.10" waitSteps="7" timeLoss="36.89" rerouteNo="0" devices="tripinfo_left_58" vType="typeWE" speedFactor="1.00" vaporized=""/>
    <tripinfo id="left_60" depart="155.00" departLane="52o_0" departPos="5.10" departSpeed="0.00" departDelay="102.00" arrival="314.00" arrivalLane="51i_0" arrivalPos="10.00" arrivalSpeed="11.09" duration="159.00" routeLength="1015.10" waitSteps="42" timeLoss="82.92" rerouteNo="0" devices="tripinfo_left_60" vType="typeWE" speedFactor="1.00" vaporized=""/>
    <tripinfo id="right_57" depart="149.00" departLane="51o_0" departPos="5.10" departSpeed="0.00" departDelay="97.00" arrival="315.00" arrivalLane="52i_0" arrivalPos="10.00" arrivalSpeed="11.46" duration="166.00" routeLength="1015.10" waitSteps="47" timeLoss="89.51" rerouteNo="0" devices="tripinfo_right_57" vType="typeWE" speedFactor="1.00" vaporized=""/>
    <tripinfo id="left_62" depart="160.00" departLane="52o_0" departPos="5.10" departSpeed="0.00" departDelay="106.00" arrival="316.00" arrivalLane="51i_0" arrivalPos="10.00" arrivalSpeed="11.12" duration="156.00" routeLength="1015.10" waitSteps="39" timeLoss="80.18" rerouteNo="0" devices="tripinfo_left_62" vType="typeWE" speedFactor="1.00" vaporized=""/>
    <tripinfo id="right_59" depart="154.00" departLane="51o_0" departPos="5.10" departSpeed="0.00" departDelay="101.00" arrival="317.00" arrivalLane="52i_0" arrivalPos="10.00" arrivalSpeed="11.60" duration="163.00" routeLength="1015.10" waitSteps="41" timeLoss="87.18" rerouteNo="0" devices="tripinfo_right_59" vType="typeWE" speedFactor="1.00" vaporized=""/>
    <tripinfo id="right_61" depart="159.00" departLane="51o_0" departPos="5.10" departSpeed="0.00" departDelay="105.00" arrival="319.00" arrivalLane="52i_0" arrivalPos="10.00" arrivalSpeed="11.86" duration="160.00" routeLength="1015.10" waitSteps="38" timeLoss="83.92" rerouteNo="0" devices="tripinfo_right_61" vType="typeWE" speedFactor="1.00" vaporized=""/>
    <tripinfo id="left_65" depart="166.00" departLane="52o_0" departPos="5.10" departSpeed="0.00" departDelay="110.00" arrival="319.00" arrivalLane="51i_0" arrivalPos="10.00" arrivalSpeed="11.47" duration="153.00" routeLength="1015.10" waitSteps="39" timeLoss="76.43" rerouteNo="0" devices="tripinfo_left_65" vType="typeWE" speedFactor="1.00" vaporized=""/>
    <tripinfo id="right_63" depart="164.00" departLane="51o_0" departPos="5.10" departSpeed="0.00" departDelay="109.00" arrival="321.00" arrivalLane="52i_0" arrivalPos="10.00" arrivalSpeed="11.27" duration="157.00" routeLength="1015.10" waitSteps="37" timeLoss="80.91" rerouteNo="0" devices="tripinfo_right_63" vType="typeWE" speedFactor="1.00" vaporized=""/>
    <tripinfo id="left_70" depart="171.00" departLane="52o_0" departPos="5.10" departSpeed="0.00" departDelay="109.00" arrival="321.00" arrivalLane="51i_0" arrivalPos="10.00" arrivalSpeed="9.12" duration="150.00" routeLength="1015.10" waitSteps="38" timeLoss="73.90" rerouteNo="0" devices="tripinfo_left_70" vType="typeWE" speedFactor="1.00" vaporized=""/>
    <tripinfo id="right_64" depart="169.00" departLane="51o_0" departPos="5.10" departSpeed="0.00" departDelay="113.00" arrival="323.00" arrivalLane="52i_0" arrivalPos="10.00" arrivalSpeed="10.40" duration="154.00" routeLength="1015.10" waitSteps="36" timeLoss="77.83" rerouteNo="0" devices="tripinfo_right_64" vType="typeWE" speedFactor="1.00" vaporized=""/>
    <tripinfo id="left_71" depart="176.00" departLane="52o_0" departPos="5.10" departSpeed="0.00" departDelay="113.00" arrival="323.00" arrivalLane="51i_0" arrivalPos="10.00" arrivalSpeed="10.84" duration="147.00" routeLength="1015.10" waitSteps="38" timeLoss="70.98" rerouteNo="0" devices="tripinfo_left_71" vType="typeWE" speedFactor="1.00" vaporized=""/>
    <tripinfo id="right_66" depart="175.00" departLane="51o_0" departPos="5.10" departSpeed="0.00" departDelay="116.00" arrival="325.00" arrivalLane="52i_0" arrivalPos="10.00" arrivalSpeed="10.01" duration="150.00" routeLength="1015.10" waitSteps="36" timeLoss="73.97" rerouteNo="0" devices="tripinfo_right_66" vType="typeWE" speedFactor="1.00" vaporized=""/>
    <tripinfo id="left_73" depart="182.00" departLane="52o_0" departPos="5.10" departSpeed="0.00" departDelay="117.00" arrival="325.00" arrivalLane="51i_0" arrivalPos="10.00" arrivalSpeed="11.28" duration="143.00" routeLength="1015.10" waitSteps="37" timeLoss="67.12" rerouteNo="0" devices="tripinfo_left_73" vType="typeWE" speedFactor="1.00" vaporized=""/>
    <tripinfo id="right_67" depart="181.00" departLane="51o_0" departPos="5.10" departSpeed="0.00" departDelay="121.00" arrival="327.00" arrivalLane="52i_0" arrivalPos="10.00" arrivalSpeed="10.85" duration="146.00" routeLength="1015.10" waitSteps="36" timeLoss="69.89" rerouteNo="0" devices="tripinfo_right_67" vType="typeWE" speedFactor="1.00" vaporized=""/>
    <tripinfo id="left_76" depart="188.00" departLane="52o_0" departPos="5.10" departSpeed="0.00" departDelay="121.00" arrival="327.00" arrivalLane="51i_0" arrivalPos="10.00" arrivalSpeed="11.08" duration="139.00" routeLength="1015.10" waitSteps="34" timeLoss="62.92" rerouteNo="0" devices="tripinfo_left_76" vType="typeWE" speedFactor="1.00" vaporized=""/>
    <tripinfo id="right_68" depart="187.00" departLane="51o_0" departPos="5.10" departSpeed="0.00" departDelay="126.00" arrival="329.00" arrivalLane="52i_0" arrivalPos="10.00" arrivalSpeed="11.20" duration="142.00" routeLength="1015.10" waitSteps="34" timeLoss="65.81" rerouteNo="0" devices="tripinfo_right_68" vType="typeWE" speedFactor="1.00" vaporized=""/>
    <tripinfo id="left_78" depart="193.00" departLane="52o_0" departPos="5.10" departSpeed="0.00" departDelay="122.00" arrival="329.00" arrivalLane="51i_0" arrivalPos="10.00" arrivalSpeed="11.74" duration="136.00" routeLength="1015.10" waitSteps="29" timeLoss="59.99" rerouteNo="0" devices="tripinfo_left_78" vType="typeWE" speedFactor="1.00" vaporized=""/>
    <tripinfo id="right_69" depart="192.00" departLane="51o_0" departPos="5.10" departSpeed="0.00" departDelay="130.00" arrival="331.00" arrivalLane="52i_0" arrivalPos="10.00" arrivalSpeed="11.00" duration="139.00" routeLength="1015.10" waitSteps="32" timeLoss="62.72" rerouteNo="0" devices="tripinfo_right_69" vType="typeWE" speedFactor="1.00" vaporized=""/>
    <tripinfo id="left_80" depart="198.00" departLane="52o_0" departPos="5.10" departSpeed="0.00" departDelay="126.00" arrival="331.00" arrivalLane="51i_0" arrivalPos="10.00" arrivalSpeed="11.24" duration="133.00" routeLength="1015.10" waitSteps="26" timeLoss="57.07" rerouteNo="0" devices="tripinfo_left_80" vType="typeWE" speedFactor="1.00" vaporized=""/>
    <tripinfo id="right_72" depart="197.00" departLane="51o_0" departPos="5.10" departSpeed="0.00" departDelay="132.00" arrival="333.00" arrivalLane="52i_0" arrivalPos="10.00" arrivalSpeed="11.65" duration="136.00" routeLength="1015.10" waitSteps="29" timeLoss="60.03" rerouteNo="0" devices="tripinfo_right_72" vType="typeWE" speedFactor="1.00" vaporized=""/>
    <tripinfo id="left_82" depart="203.00" departLane="52o_0" departPos="5.10" departSpeed="0.00" departDelay="130.00" arrival="333.00" arrivalLane="51i_0" arrivalPos="10.00" arrivalSpeed="11.39" duration="130.00" routeLength="1015.10" waitSteps="25" timeLoss="53.90" rerouteNo="0" devices="tripinfo_left_82" vType="typeWE" speedFactor="1.00" vaporized=""/>
    <tripinfo id="right_74" depart="202.00" departLane="51o_0" departPos="5.10" departSpeed="0.00" departDelay="136.00" arrival="335.00" arrivalLane="52i_0" arrivalPos="10.00" arrivalSpeed="11.00" duration="133.00" routeLength="1015.10" waitSteps="25" timeLoss="56.96" rerouteNo="0" devices="tripinfo_right_74" vType="typeWE" speedFactor="1.00" vaporized=""/>
    <tripinfo id="left_84" depart="208.00" departLane="52o_0" departPos="5.10" departSpeed="0.00" departDelay="133.00" arrival="335.00" arrivalLane="51i_0" arrivalPos="10.00" arrivalSpeed="10.95" duration="127.00" routeLength="1015.10" waitSteps="22" timeLoss="50.80" rerouteNo="0" devices="tripinfo_left_84" vType="typeWE" speedFactor="1.00" vaporized=""/>
    <tripinfo id="right_75" depart="207.00" departLane="51o_0" departPos="5.10" departSpeed="0.00" departDelay="140.00" arrival="337.00" arrivalLane="52i_0" arrivalPos="10.00" arrivalSpeed="11.09" duration="130.00" routeLength="1015.10" waitSteps="22" timeLoss="53.91" rerouteNo="0" devices="tripinfo_right_75" vType="typeWE" speedFactor="1.00" vaporized=""/>