<?xml version="1.0" encoding="UTF-8"?>

<!-- generated on Thu Sep  7 12:45:55 2017 by SUMO gui Version 0.30.0
<?xml version="1.0" encoding="UTF-8"?>

<configuration xmlns:xsi="http://www.w3.org/2001/XMLSchema-instance" xsi:noNamespaceSchemaLocation="http://sumo.dlr.de/xsd/sumoConfiguration.xsd">

    <input>
        <net-file value="data/cross.net.xml"/>
        <route-files value="data/cross.rou.xml"/>
        <additional-files value="data/cross1.det.xml"/>
    </input>

    <output>
        <tripinfo-output value="tripinfo.xml"/>
    </output>

    <time>
        <begin value="0"/>
    </time>

    <report>
        <verbose value="true"/>
        <no-step-log value="true"/>
    </report>

    <traci_server>
        <remote-port value="51987"/>
    </traci_server>

    <gui_only>
        <gui-settings-file value="data/gui.settings.xml"/>
    </gui_only>

</configuration>
-->

<tripinfos xmlns:xsi="http://www.w3.org/2001/XMLSchema-instance" xsi:noNamespaceSchemaLocation="http://sumo.dlr.de/xsd/tripinfo_file.xsd">
    <tripinfo id="left_0" depart="1.00" departLane="52o_0" departPos="5.10" departSpeed="0.00" departDelay="0.00" arrival="92.00" arrivalLane="51i_0" arrivalPos="10.00" arrivalSpeed="11.81" duration="91.00" routeLength="1015.10" waitSteps="0" timeLoss="14.66" rerouteNo="0" devices="tripinfo_left_0" vType="typeWE" speedFactor="1.00" vaporized=""/>
    <tripinfo id="right_3" depart="5.00" departLane="51o_0" departPos="5.10" departSpeed="0.00" departDelay="0.00" arrival="96.00" arrivalLane="52i_0" arrivalPos="10.00" arrivalSpeed="11.81" duration="91.00" routeLength="1015.10" waitSteps="0" timeLoss="14.62" rerouteNo="0" devices="tripinfo_right_3" vType="typeWE" speedFactor="1.00" vaporized=""/>
    <tripinfo id="up_4" depart="10.00" departLane="53o_0" departPos="7.10" departSpeed="0.00" departDelay="0.00" arrival="104.00" arrivalLane="54i_0" arrivalPos="10.00" arrivalSpeed="11.24" duration="94.00" routeLength="1013.10" waitSteps="0" timeLoss="21.99" rerouteNo="0" devices="tripinfo_up_4" vType="typeNS" speedFactor="1.00" vaporized=""/>
    <tripinfo id="down_1" depart="1.00" departLane="54o_0" departPos="7.10" departSpeed="0.00" departDelay="0.00" arrival="109.00" arrivalLane="53i_0" arrivalPos="10.00" arrivalSpeed="11.69" duration="108.00" routeLength="1013.10" waitSteps="9" timeLoss="36.21" rerouteNo="0" devices="tripinfo_down_1" vType="typeNS" speedFactor="1.00" vaporized=""/>
    <tripinfo id="left_2" depart="6.00" departLane="52o_0" departPos="5.10" departSpeed="0.00" departDelay="3.00" arrival="131.00" arrivalLane="51i_0" arrivalPos="10.00" arrivalSpeed="11.43" duration="125.00" routeLength="1015.10" waitSteps="22" timeLoss="48.38" rerouteNo="0" devices="tripinfo_left_2" vType="typeWE" speedFactor="1.00" vaporized=""/>
    <tripinfo id="down_5" depart="13.00" departLane="54o_0" departPos="7.10" departSpeed="0.00" departDelay="0.00" arrival="139.00" arrivalLane="53i_0" arrivalPos="10.00" arrivalSpeed="11.50" duration="126.00" routeLength="1013.10" waitSteps="20" timeLoss="54.76" rerouteNo="0" devices="tripinfo_down_5" vType="typeNS" speedFactor="1.00" vaporized=""/>
    <tripinfo id="right_7" depart="23.00" departLane="51o_0" departPos="5.10" departSpeed="0.00" departDelay="0.00" arrival="145.00" arrivalLane="52i_0" arrivalPos="10.00" arrivalSpeed="11.47" duration="122.00" routeLength="1015.10" waitSteps="18" timeLoss="45.51" rerouteNo="0" devices="tripinfo_right_7" vType="typeWE" speedFactor="1.00" vaporized=""/>
    <tripinfo id="left_6" depart="17.00" departLane="52o_0" departPos="5.10" departSpeed="0.00" departDelay="0.00" arrival="146.00" arrivalLane="51i_0" arrivalPos="10.00" arrivalSpeed="11.57" duration="129.00" routeLength="1015.10" waitSteps="21" timeLoss="52.32" rerouteNo="0" devices="tripinfo_left_6" vType="typeWE" speedFactor="1.00" vaporized=""/>
    <tripinfo id="down_10" depart="30.00" departLane="54o_0" departPos="7.10" departSpeed="0.00" departDelay="0.00" arrival="153.00" arrivalLane="53i_0" arrivalPos="10.00" arrivalSpeed="10.83" duration="123.00" routeLength="1013.10" waitSteps="17" timeLoss="51.48" rerouteNo="0" devices="tripinfo_down_10" vType="typeNS" speedFactor="1.00" vaporized=""/>
    <tripinfo id="up_12" depart="33.00" departLane="53o_0" departPos="7.10" departSpeed="0.00" departDelay="0.00" arrival="154.00" arrivalLane="54i_0" arrivalPos="10.00" arrivalSpeed="11.69" duration="121.00" routeLength="1013.10" waitSteps="18" timeLoss="49.61" rerouteNo="0" devices="tripinfo_up_12" vType="typeNS" speedFactor="1.00" vaporized=""/>
    <tripinfo id="right_8" depart="28.00" departLane="51o_0" departPos="5.10" departSpeed="0.00" departDelay="4.00" arrival="161.00" arrivalLane="52i_0" arrivalPos="10.00" arrivalSpeed="11.06" duration="133.00" routeLength="1015.10" waitSteps="24" timeLoss="56.97" rerouteNo="0" devices="tripinfo_right_8" vType="typeWE" speedFactor="1.00" vaporized=""/>
    <tripinfo id="left_9" depart="26.00" departLane="52o_0" departPos="5.10" departSpeed="0.00" departDelay="0.00" arrival="161.00" arrivalLane="51i_0" arrivalPos="10.00" arrivalSpeed="11.27" duration="135.00" routeLength="1015.10" waitSteps="22" timeLoss="58.61" rerouteNo="0" devices="tripinfo_left_9" vType="typeWE" speedFactor="1.00" vaporized=""/>
    <tripinfo id="right_15" depart="52.00" departLane="51o_0" departPos="5.10" departSpeed="0.00" departDelay="0.00" arrival="177.00" arrivalLane="52i_0" arrivalPos="10.00" arrivalSpeed="11.35" duration="125.00" routeLength="1015.10" waitSteps="16" timeLoss="48.99" rerouteNo="0" devices="tripinfo_right_15" vType="typeWE" speedFactor="1.00" vaporized=""/>
    <tripinfo id="up_13" depart="39.00" departLane="53o_0" departPos="7.10" departSpeed="0.00" departDelay="2.00" arrival="186.00" arrivalLane="54i_0" arrivalPos="10.00" arrivalSpeed="11.52" duration="147.00" routeLength="1013.10" waitSteps="39" timeLoss="75.43" rerouteNo="0" devices="tripinfo_up_13" vType="typeNS" speedFactor="1.00" vaporized=""/>
    <tripinfo id="down_11" depart="36.00" departLane="54o_0" departPos="7.10" departSpeed="0.00" departDelay="4.00" arrival="200.00" arrivalLane="53i_0" arrivalPos="10.00" arrivalSpeed="11.68" duration="164.00" routeLength="1013.10" waitSteps="48" timeLoss="92.70" rerouteNo="0" devices="tripinfo_down_11" vType="typeNS" speedFactor="1.00" vaporized=""/>
    <tripinfo id="left_35" depart="107.00" departLane="52o_0" departPos="5.10" departSpeed="0.00" departDelay="0.00" arrival="204.00" arrivalLane="51i_0" arrivalPos="10.00" arrivalSpeed="11.47" duration="97.00" routeLength="1015.10" waitSteps="0" timeLoss="21.21" rerouteNo="0" devices="tripinfo_left_35" vType="typeWE" speedFactor="1.00" vaporized=""/>
    <tripinfo id="right_17" depart="57.00" departLane="51o_0" departPos="5.10" departSpeed="0.00" departDelay="1.00" arrival="207.00" arrivalLane="52i_0" arrivalPos="10.00" arrivalSpeed="11.51" duration="150.00" routeLength="1015.10" waitSteps="34" timeLoss="73.85" rerouteNo="0" devices="tripinfo_right_17" vType="typeWE" speedFactor="1.00" vaporized=""/>
    <tripinfo id="down_14" depart="49.00" departLane="54o_0" departPos="7.10" departSpeed="0.00" departDelay="0.00" arrival="215.00" arrivalLane="53i_0" arrivalPos="10.00" arrivalSpeed="11.34" duration="166.00" routeLength="1013.10" waitSteps="50" timeLoss="94.61" rerouteNo="0" devices="tripinfo_down_14" vType="typeNS" speedFactor="1.00" vaporized=""/>
    <tripinfo id="up_16" depart="55.00" departLane="53o_0" departPos="7.10" departSpeed="0.00" departDelay="0.00" arrival="215.00" arrivalLane="54i_0" arrivalPos="10.00" arrivalSpeed="11.40" duration="160.00" routeLength="1013.10" waitSteps="45" timeLoss="88.06" rerouteNo="0" devices="tripinfo_up_16" vType="typeNS" speedFactor="1.00" vaporized=""/>
    <tripinfo id="right_18" depart="62.00" departLane="51o_0" departPos="5.10" departSpeed="0.00" departDelay="3.00" arrival="237.00" arrivalLane="52i_0" arrivalPos="10.00" arrivalSpeed="11.54" duration="175.00" routeLength="1015.10" waitSteps="52" timeLoss="99.07" rerouteNo="0" devices="tripinfo_right_18" vType="typeWE" speedFactor="1.00" vaporized=""/>
    <tripinfo id="left_38" depart="116.00" departLane="52o_0" departPos="5.10" departSpeed="0.00" departDelay="0.00" arrival="238.00" arrivalLane="51i_0" arrivalPos="10.00" arrivalSpeed="11.14" duration="122.00" routeLength="1015.10" waitSteps="18" timeLoss="45.52" rerouteNo="0" devices="tripinfo_left_38" vType="typeWE" speedFactor="1.00" vaporized=""/>
    <tripinfo id="down_19" depart="62.00" departLane="54o_0" departPos="7.10" departSpeed="0.00" departDelay="0.00" arrival="244.00" arrivalLane="53i_0" arrivalPos="10.00" arrivalSpeed="11.51" duration="182.00" routeLength="1013.10" waitSteps="61" timeLoss="110.44" rerouteNo="0" devices="tripinfo_down_19" vType="typeNS" speedFactor="1.00" vaporized=""/>
    <tripinfo id="right_25" depart="69.00" departLane="51o_0" departPos="5.10" departSpeed="0.00" departDelay="0.00" arrival="251.00" arrivalLane="52i_0" arrivalPos="10.00" arrivalSpeed="11.64" duration="182.00" routeLength="1015.10" waitSteps="54" timeLoss="105.92" rerouteNo="0" devices="tripinfo_right_25" vType="typeWE" speedFactor="1.00" vaporized=""/>
    <tripinfo id="left_41" depart="126.00" departLane="52o_0" departPos="5.10" departSpeed="0.00" departDelay="0.00" arrival="252.00" arrivalLane="51i_0" arrivalPos="10.00" arrivalSpeed="11.53" duration="126.00" routeLength="1015.10" waitSteps="18" timeLoss="49.31" rerouteNo="0" devices="tripinfo_left_41" vType="typeWE" speedFactor="1.00" vaporized=""/>
    <tripinfo id="up_20" depart="62.00" departLane="53o_0" departPos="7.10" departSpeed="0.00" departDelay="0.00" arrival="259.00" arrivalLane="54i_0" arrivalPos="10.00" arrivalSpeed="11.61" duration="197.00" routeLength="1013.10" waitSteps="75" timeLoss="125.65" rerouteNo="0" devices="tripinfo_up_20" vType="typeNS" speedFactor="1.00" vaporized=""/>
    <tripinfo id="down_22" depart="67.00" departLane="54o_0" departPos="7.10" departSpeed="0.00" departDelay="2.00" arrival="273.00" arrivalLane="53i_0" arrivalPos="10.00" arrivalSpeed="11.62" duration="206.00" routeLength="1013.10" waitSteps="79" timeLoss="133.93" rerouteNo="0" devices="tripinfo_down_22" vType="typeNS" speedFactor="1.00" vaporized=""/>
    <tripinfo id="right_26" depart="74.00" departLane="51o_0" departPos="5.10" departSpeed="0.00" departDelay="1.00" arrival="279.00" arrivalLane="52i_0" arrivalPos="10.00" arrivalSpeed="11.28" duration="205.00" routeLength="1015.10" waitSteps="72" timeLoss="129.13" rerouteNo="0" devices="tripinfo_right_26" vType="typeWE" speedFactor="1.00" vaporized=""/>
    <tripinfo id="left_42" depart="131.00" departLane="52o_0" departPos="5.10" departSpeed="0.00" departDelay="4.00" arrival="281.00" arrivalLane="51i_0" arrivalPos="10.00" arrivalSpeed="11.40" duration="150.00" routeLength="1015.10" waitSteps="33" timeLoss="73.76" rerouteNo="0" devices="tripinfo_left_42" vType="typeWE" speedFactor="1.00" vaporized=""/>
    <tripinfo id="down_24" depart="74.00" departLane="54o_0" departPos="7.10" departSpeed="0.00" departDelay="6.00" arrival="287.00" arrivalLane="53i_0" arrivalPos="10.00" arrivalSpeed="11.34" duration="213.00" routeLength="1013.10" waitSteps="75" timeLoss="141.63" rerouteNo="0" devices="tripinfo_down_24" vType="typeNS" speedFactor="1.00" vaporized=""/>
    <tripinfo id="up_21" depart="68.00" departLane="53o_0" departPos="7.10" departSpeed="0.00" departDelay="4.00" arrival="287.00" arrivalLane="54i_0" arrivalPos="10.00" arrivalSpeed="11.67" duration="219.00" routeLength="1013.10" waitSteps="92" timeLoss="147.49" rerouteNo="0" devices="tripinfo_up_21" vType="typeNS" speedFactor="1.00" vaporized=""/>
    <tripinfo id="down_27" depart="80.00" departLane="54o_0" departPos="7.10" departSpeed="0.00" departDelay="6.00" arrival="303.00" arrivalLane="53i_0" arrivalPos="10.00" arrivalSpeed="11.30" duration="223.00" routeLength="1013.10" waitSteps="81" timeLoss="151.33" rerouteNo="0" devices="tripinfo_down_27" vType="typeNS" speedFactor="1.00" vaporized=""/>
    <tripinfo id="up_23" depart="74.00" departLane="53o_0" departPos="7.10" departSpeed="0.00" departDelay="9.00" arrival="303.00" arrivalLane="54i_0" arrivalPos="10.00" arrivalSpeed="11.68" duration="229.00" routeLength="1013.10" waitSteps="94" timeLoss="157.50" rerouteNo="0" devices="tripinfo_up_23" vType="typeNS" speedFactor="1.00" vaporized=""/>
    <tripinfo id="right_28" depart="79.00" departLane="51o_0" departPos="5.10" departSpeed="0.00" departDelay="0.00" arrival="311.00" arrivalLane="52i_0" arrivalPos="10.00" arrivalSpeed="11.47" duration="232.00" routeLength="1015.10" waitSteps="90" timeLoss="155.97" rerouteNo="0" devices="tripinfo_right_28" vType="typeWE" speedFactor="1.00" vaporized=""/>
    <tripinfo id="left_49" depart="149.00" departLane="52o_0" departPos="5.10" departSpeed="0.00" departDelay="0.00" arrival="312.00" arrivalLane="51i_0" arrivalPos="10.00" arrivalSpeed="11.25" duration="163.00" routeLength="1015.10" waitSteps="45" timeLoss="86.40" rerouteNo="0" devices="tripinfo_left_49" vType="typeWE" speedFactor="1.00" vaporized=""/>
    <tripinfo id="right_31" depart="95.00" departLane="51o_0" departPos="5.10" departSpeed="0.00" departDelay="0.00" arrival="326.00" arrivalLane="52i_0" arrivalPos="10.00" arrivalSpeed="11.78" duration="231.00" routeLength="1015.10" waitSteps="88" timeLoss="154.77" rerouteNo="0" devices="tripinfo_right_31" vType="typeWE" speedFactor="1.00" vaporized=""/>
    <tripinfo id="left_50" depart="154.00" departLane="52o_0" departPos="5.10" departSpeed="0.00" departDelay="0.00" arrival="327.00" arrivalLane="51i_0" arrivalPos="10.00" arrivalSpeed="11.61" duration="173.00" routeLength="1015.10" waitSteps="48" timeLoss="96.51" rerouteNo="0" devices="tripinfo_left_50" vType="typeWE" speedFactor="1.00" vaporized=""/>
    <tripinfo id="up_29" depart="86.00" departLane="53o_0" departPos="7.10" departSpeed="0.00" departDelay="0.00" arrival="334.00" arrivalLane="54i_0" arrivalPos="10.00" arrivalSpeed="11.63" duration="248.00" routeLength="1013.10" waitSteps="105" timeLoss="176.53" rerouteNo="0" devices="tripinfo_up_29" vType="typeNS" speedFactor="1.00" vaporized=""/>
    <tripinfo id="down_30" depart="91.00" departLane="54o_0" departPos="7.10" departSpeed="0.00" departDelay="0.00" arrival="335.00" arrivalLane="53i_0" arrivalPos="10.00" arrivalSpeed="11.64" duration="244.00" routeLength="1013.10" waitSteps="97" timeLoss="171.92" rerouteNo="0" devices="tripinfo_down_30" vType="typeNS" speedFactor="1.00" vaporized=""/>
    <tripinfo id="up_32" depart="97.00" departLane="53o_0" departPos="7.10" departSpeed="0.00" departDelay="0.00" arrival="348.00" arrivalLane="54i_0" arrivalPos="10.00" arrivalSpeed="11.64" duration="251.00" routeLength="1013.10" waitSteps="100" timeLoss="179.60" rerouteNo="0" devices="tripinfo_up_32" vType="typeNS" speedFactor="1.00" vaporized=""/>
    <tripinfo id="down_36" depart="107.00" departLane="54o_0" departPos="7.10" departSpeed="0.00" departDelay="0.00" arrival="350.00" arrivalLane="53i_0" arrivalPos="10.00" arrivalSpeed="11.21" duration="243.00" routeLength="1013.10" waitSteps="83" timeLoss="170.96" rerouteNo="0" devices="tripinfo_down_36" vType="typeNS" speedFactor="1.00" vaporized=""/>
    <tripinfo id="left_52" depart="159.00" departLane="52o_0" departPos="5.10" departSpeed="0.00" departDelay="4.00" arrival="358.00" arrivalLane="51i_0" arrivalPos="10.00" arrivalSpeed="11.34" duration="199.00" routeLength="1015.10" waitSteps="68" timeLoss="122.89" rerouteNo="0" devices="tripinfo_left_52" vType="typeWE" speedFactor="1.00" vaporized=""/>
    <tripinfo id="right_33" depart="102.00" departLane="51o_0" departPos="5.10" departSpeed="0.00" departDelay="0.00" arrival="360.00" arrivalLane="52i_0" arrivalPos="10.00" arrivalSpeed="11.58" duration="258.00" routeLength="1015.10" waitSteps="108" timeLoss="181.45" rerouteNo="0" devices="tripinfo_right_33" vType="typeWE" speedFactor="1.00" vaporized=""/>
    <tripinfo id="left_54" depart="164.00" departLane="52o_0" departPos="5.10" departSpeed="0.00" departDelay="4.00" arrival="361.00" arrivalLane="51i_0" arrivalPos="10.00" arrivalSpeed="11.47" duration="197.00" routeLength="1015.10" waitSteps="66" timeLoss="120.65" rerouteNo="0" devices="tripinfo_left_54" vType="typeWE" speedFactor="1.00" vaporized=""/>
    <tripinfo id="right_39" depart="118.00" departLane="51o_0" departPos="5.10" departSpeed="0.00" departDelay="0.00" arrival="362.00" arrivalLane="52i_0" arrivalPos="10.00" arrivalSpeed="10.01" duration="244.00" routeLength="1015.10" waitSteps="90" timeLoss="167.80" rerouteNo="0" devices="tripinfo_right_39" vType="typeWE" speedFactor="1.00" vaporized=""/>
    <tripinfo id="down_37" depart="112.00" departLane="54o_0" departPos="7.10" departSpeed="0.00" departDelay="0.00" arrival="386.00" arrivalLane="53i_0" arrivalPos="10.00" arrivalSpeed="10.99" duration="274.00" routeLength="1013.10" waitSteps="99" timeLoss="202.33" rerouteNo="0" devices="tripinfo_down_37" vType="typeNS" speedFactor="1.00" vaporized=""/>
    <tripinfo id="right_45" depart="134.00" departLane="51o_0" departPos="5.10" departSpeed="0.00" departDelay="0.00" arrival="394.00" arrivalLane="52i_0" arrivalPos="10.00" arrivalSpeed="11.47" duration="260.00" routeLength="1015.10" waitSteps="101" timeLoss="183.24" rerouteNo="0" devices="tripinfo_right_45" vType="typeWE" speedFactor="1.00" vaporized=""/>
    <tripinfo id="left_57" depart="169.00" departLane="52o_0" departPos="5.10" departSpeed="0.00" departDelay="5.00" arrival="395.00" arrivalLane="51i_0" arrivalPos="10.00" arrivalSpeed="11.80" duration="226.00" routeLength="1015.10" waitSteps="82" timeLoss="149.27" rerouteNo="0" devices="tripinfo_left_57" vType="typeWE" speedFactor="1.00" vaporized=""/>
    <tripinfo id="up_34" depart="103.00" departLane="53o_0" departPos="7.10" departSpeed="0.00" departDelay="0.00" arrival="400.00" arrivalLane="54i_0" arrivalPos="10.00" arrivalSpeed="10.88" duration="297.00" routeLength="1013.10" waitSteps="139" timeLoss="225.40" rerouteNo="0" devices="tripinfo_up_34" vType="typeNS" speedFactor="1.00" vaporized=""/>
    <tripinfo id="down_62" depart="177.00" departLane="54o_0" departPos="7.10" departSpeed="0.00" departDelay="0.00" arrival="401.00" arrivalLane="53i_0" arrivalPos="10.00" arrivalSpeed="11.35" duration="224.00" routeLength="1013.10" waitSteps="71" timeLoss="152.20" rerouteNo="0" devices="tripinfo_down_62" vType="typeNS" speedFactor="1.00" vaporized=""/>
    <tripinfo id="down_64" depart="183.00" departLane="54o_0" departPos="7.10" departSpeed="0.00" departDelay="0.00" arrival="416.00" arrivalLane="53i_0" arrivalPos="10.00" arrivalSpeed="11.43" duration="233.00" routeLength="1013.10" waitSteps="71" timeLoss="161.15" rerouteNo="0" devices="tripinfo_down_64" vType="typeNS" speedFactor="1.00" vaporized=""/>
    <tripinfo id="up_40" depart="122.00" departLane="53o_0" departPos="7.10" departSpeed="0.00" departDelay="0.00" arrival="416.00" arrivalLane="54i_0" arrivalPos="10.00" arrivalSpeed="11.62" duration="294.00" routeLength="1013.10" waitSteps="134" timeLoss="221.89" rerouteNo="0" devices="tripinfo_up_40" vType="typeNS" speedFactor="1.00" vaporized=""/>
    <tripinfo id="right_46" depart="139.00" departLane="51o_0" departPos="5.10" departSpeed="0.00" departDelay="2.00" arrival="423.00" arrivalLane="52i_0" arrivalPos="10.00" arrivalSpeed="10.74" duration="284.00" routeLength="1015.10" waitSteps="117" timeLoss="207.81" rerouteNo="0" devices="tripinfo_right_46" vType="typeWE" speedFactor="1.00" vaporized=""/>
    <tripinfo id="left_58" depart="174.00" departLane="52o_0" departPos="5.10" departSpeed="0.00" departDelay="9.00" arrival="424.00" arrivalLane="51i_0" arrivalPos="10.00" arrivalSpeed="11.03" duration="250.00" routeLength="1015.10" waitSteps="105" timeLoss="173.82" rerouteNo="0" devices="tripinfo_left_58" vType="typeWE" speedFactor="1.00" vaporized=""/>
    <tripinfo id="down_67" depart="189.00" departLane="54o_0" departPos="7.10" departSpeed="0.00" departDelay="2.00" arrival="432.00" arrivalLane="53i_0" arrivalPos="10.00" arrivalSpeed="11.06" duration="243.00" routeLength="1013.10" waitSteps="74" timeLoss="171.38" rerouteNo="0" devices="tripinfo_down_67" vType="typeNS" speedFactor="1.00" vaporized=""/>
    <tripinfo id="up_43" depart="129.00" departLane="53o_0" departPos="7.10" departSpeed="0.00" departDelay="0.00" arrival="432.00" arrivalLane="54i_0" arrivalPos="10.00" arrivalSpeed="11.54" duration="303.00" routeLength="1013.10" waitSteps="133" timeLoss="231.62" rerouteNo="0" devices="tripinfo_up_43" vType="typeNS" speedFactor="1.00" vaporized=""/>
    <tripinfo id="left_59" depart="179.00" departLane="52o_0" departPos="5.10" departSpeed="0.00" departDelay="11.00" arrival="454.00" arrivalLane="51i_0" arrivalPos="10.00" arrivalSpeed="11.36" duration="275.00" routeLength="1015.10" waitSteps="121" timeLoss="198.99" rerouteNo="0" devices="tripinfo_left_59" vType="typeWE" speedFactor="1.00" vaporized=""/>
    <tripinfo id="right_47" depart="146.00" departLane="51o_0" departPos="5.10" departSpeed="0.00" departDelay="4.00" arrival="454.00" arrivalLane="52i_0" arrivalPos="10.00" arrivalSpeed="11.34" duration="308.00" routeLength="1015.10" waitSteps="128" timeLoss="231.71" rerouteNo="0" devices="tripinfo_right_47" vType="typeWE" speedFactor="1.00" vaporized=""/>
    <tripinfo id="down_71" depart="198.00" departLane="54o_0" departPos="7.10" departSpeed="0.00" departDelay="0.00" arrival="462.00" arrivalLane="53i_0" arrivalPos="10.00" arrivalSpeed="11.57" duration="264.00" routeLength="1013.10" waitSteps="91" timeLoss="191.89" rerouteNo="0" devices="tripinfo_down_71" vType="typeNS" speedFactor="1.00" vaporized=""/>
    <tripinfo id="up_44" depart="135.00" departLane="53o_0" departPos="7.10" departSpeed="0.00" departDelay="3.00" arrival="462.00" arrivalLane="54i_0" arrivalPos="10.00" arrivalSpeed="11.38" duration="327.00" routeLength="1013.10" waitSteps="149" timeLoss="255.02" rerouteNo="0" devices="tripinfo_up_44" vType="typeNS" speedFactor="1.00" vaporized=""/>
    <tripinfo id="down_77" depart="223.00" departLane="54o_0" departPos="7.10" departSpeed="0.00" departDelay="0.00" arrival="475.00" arrivalLane="53i_0" arrivalPos="10.00" arrivalSpeed="11.55" duration="252.00" routeLength="1013.10" waitSteps="87" timeLoss="180.28" rerouteNo="0" devices="tripinfo_down_77" vType="typeNS" speedFactor="1.00" vaporized=""/>
    <tripinfo id="up_48" depart="145.00" departLane="53o_0" departPos="7.10" departSpeed="0.00" departDelay="0.00" arrival="477.00" arrivalLane="54i_0" arrivalPos="10.00" arrivalSpeed="11.63" duration="332.00" routeLength="1013.10" waitSteps="145" timeLoss="260.14" rerouteNo="0" devices="tripinfo_up_48" vType="typeNS" speedFactor="1.00" vaporized=""/>
    <tripinfo id="left_68" depart="188.00" departLane="52o_0" departPos="5.10" departSpeed="0.00" departDelay="0.00" arrival="485.00" arrivalLane="51i_0" arrivalPos="10.00" arrivalSpeed="11.25" duration="297.00" routeLength="1015.10" waitSteps="130" timeLoss="220.81" rerouteNo="0" devices="tripinfo_left_68" vType="typeWE" speedFactor="1.00" vaporized=""/>
    <tripinfo id="right_51" depart="155.00" departLane="51o_0" departPos="5.10" departSpeed="0.00" departDelay="0.00" arrival="485.00" arrivalLane="52i_0" arrivalPos="10.00" arrivalSpeed="11.72" duration="330.00" routeLength="1015.10" waitSteps="149" timeLoss="253.98" rerouteNo="0" devices="tripinfo_right_51" vType="typeWE" speedFactor="1.00" vaporized=""/>
    <tripinfo id="down_95" depart="270.00" departLane="54o_0" departPos="7.10" departSpeed="0.00" departDelay="0.00" arrival="495.00" arrivalLane="53i_0" arrivalPos="10.00" arrivalSpeed="11.72" duration="225.00" routeLength="1013.10" waitSteps="70" timeLoss="153.63" rerouteNo="0" devices="tripinfo_down_95" vType="typeNS" speedFactor="1.00" vaporized=""/>
    <tripinfo id="up_55" depart="163.00" departLane="53o_0" departPos="7.10" departSpeed="0.00" departDelay="0.00" arrival="496.00" arrivalLane="54i_0" arrivalPos="10.00" arrivalSpeed="11.30" duration="333.00" routeLength="1013.10" waitSteps="136" timeLoss="261.19" rerouteNo="0" devices="tripinfo_up_55" vType="typeNS" speedFactor="1.00" vaporized=""/>
    <tripinfo id="left_70" depart="198.00" departLane="52o_0" departPos="5.10" departSpeed="0.00" departDelay="0.00" arrival="517.00" arrivalLane="51i_0" arrivalPos="10.00" arrivalSpeed="11.36" duration="319.00" routeLength="1015.10" waitSteps="144" timeLoss="242.91" rerouteNo="0" devices="tripinfo_left_70" vType="typeWE" speedFactor="1.00" vaporized=""/>
    <tripinfo id="right_53" depart="161.00" departLane="51o_0" departPos="5.10" departSpeed="0.00" departDelay="4.00" arrival="518.00" arrivalLane="52i_0" arrivalPos="10.00" arrivalSpeed="11.45" duration="357.00" routeLength="1015.10" waitSteps="167" timeLoss="280.19" rerouteNo="0" devices="tripinfo_right_53" vType="typeWE" speedFactor="1.00" vaporized=""/>
    <tripinfo id="down_101" depart="285.00" departLane="54o_0" departPos="7.10" departSpeed="0.00" departDelay="0.00" arrival="524.00" arrivalLane="53i_0" arrivalPos="10.00" arrivalSpeed="11.54" duration="239.00" routeLength="1013.10" waitSteps="80" timeLoss="167.10" rerouteNo="0" devices="tripinfo_down_101" vType="typeNS" speedFactor="1.00" vaporized=""/>
    <tripinfo id="up_60" depart="169.00" departLane="53o_0" departPos="7.10" departSpeed="0.00" departDelay="1.00" arrival="524.00" arrivalLane="54i_0" arrivalPos="10.00" arrivalSpeed="11.65" duration="355.00" routeLength="1013.10" waitSteps="150" timeLoss="283.19" rerouteNo="0" devices="tripinfo_up_60" vType="typeNS" speedFactor="1.00" vaporized=""/>
    <tripinfo id="right_56" depart="166.00" departLane="51o_0" departPos="5.10" departSpeed="0.00" departDelay="2.00" arrival="532.00" arrivalLane="52i_0" arrivalPos="10.00" arrivalSpeed="11.51" duration="366.00" routeLength="1015.10" waitSteps="171" timeLoss="289.63" rerouteNo="0" devices="tripinfo_right_56" vType="typeWE" speedFactor="1.00" vaporized=""/>
    <tripinfo id="left_73" depart="205.00" departLane="52o_0" departPos="5.10" departSpeed="0.00" departDelay="0.00" arrival="533.00" arrivalLane="51i_0" arrivalPos="10.00" arrivalSpeed="11.63" duration="328.00" routeLength="1015.10" waitSteps="147" timeLoss="251.22" rerouteNo="0" devices="tripinfo_left_73" vType="typeWE" speedFactor="1.00" vaporized=""/>
    <tripinfo id="down_108" depart="303.00" departLane="54o_0" departPos="7.10" departSpeed="0.00" departDelay="0.00" arrival="541.00" arrivalLane="53i_0" arrivalPos="10.00" arrivalSpeed="11.14" duration="238.00" routeLength="1013.10" waitSteps="72" timeLoss="166.44" rerouteNo="0" devices="tripinfo_down_108" vType="typeNS" speedFactor="1.00" vaporized=""/>
    <tripinfo id="up_66" depart="186.00" departLane="53o_0" departPos="7.10" departSpeed="0.00" departDelay="0.00" arrival="541.00" arrivalLane="54i_0" arrivalPos="10.00" arrivalSpeed="11.45" duration="355.00" routeLength="1013.10" waitSteps="149" timeLoss="283.14" rerouteNo="0" devices="tripinfo_up_66" vType="typeNS" speedFactor="1.00" vaporized=""/>
    <tripinfo id="down_110" depart="309.00" departLane="54o_0" departPos="7.10" departSpeed="0.00" departDelay="3.00" arrival="557.00" arrivalLane="53i_0" arrivalPos="10.00" arrivalSpeed="11.46" duration="248.00" routeLength="1013.10" waitSteps="76" timeLoss="175.94" rerouteNo="0" devices="tripinfo_down_110" vType="typeNS" speedFactor="1.00" vaporized=""/>
    <tripinfo id="up_69" depart="192.00" departLane="53o_0" departPos="7.10" departSpeed="0.00" departDelay="2.00" arrival="557.00" arrivalLane="54i_0" arrivalPos="10.00" arrivalSpeed="11.44" duration="365.00" routeLength="1013.10" waitSteps="153" timeLoss="293.05" rerouteNo="0" devices="tripinfo_up_69" vType="typeNS" speedFactor="1.00" vaporized=""/>
    <tripinfo id="right_61" depart="175.00" departLane="51o_0" departPos="5.10" departSpeed="0.00" departDelay="0.00" arrival="566.00" arrivalLane="52i_0" arrivalPos="10.00" arrivalSpeed="11.26" duration="391.00" routeLength="1015.10" waitSteps="191" timeLoss="314.91" rerouteNo="0" devices="tripinfo_right_61" vType="typeWE" speedFactor="1.00" vaporized=""/>
    <tripinfo id="left_74" depart="216.00" departLane="52o_0" departPos="5.10" departSpeed="0.00" departDelay="0.00" arrival="581.00" arrivalLane="51i_0" arrivalPos="10.00" arrivalSpeed="11.64" duration="365.00" routeLength="1015.10" waitSteps="175" timeLoss="288.44" rerouteNo="0" devices="tripinfo_left_74" vType="typeWE" speedFactor="1.00" vaporized=""/>
    <tripinfo id="down_113" depart="325.00" departLane="54o_0" departPos="7.10" departSpeed="0.00" departDelay="0.00" arrival="587.00" arrivalLane="53i_0" arrivalPos="10.00" arrivalSpeed="11.48" duration="262.00" routeLength="1013.10" waitSteps="91" timeLoss="190.45" rerouteNo="0" devices="tripinfo_down_113" vType="typeNS" speedFactor="1.00" vaporized=""/>
    <tripinfo id="up_72" depart="204.00" departLane="53o_0" departPos="7.10" departSpeed="0.00" departDelay="0.00" arrival="588.00" arrivalLane="54i_0" arrivalPos="10.00" arrivalSpeed="11.50" duration="384.00" routeLength="1013.10" waitSteps="161" timeLoss="311.90" rerouteNo="0" devices="tripinfo_up_72" vType="typeNS" speedFactor="1.00" vaporized=""/>
    <tripinfo id="right_63" depart="183.00" departLane="51o_0" departPos="5.10" departSpeed="0.00" departDelay="0.00" arrival="598.00" arrivalLane="52i_0" arrivalPos="10.00" arrivalSpeed="11.82" duration="415.00" routeLength="1015.10" waitSteps="204" timeLoss="338.18" rerouteNo="0" devices="tripinfo_right_63" vType="typeWE" speedFactor="1.00" vaporized=""/>
    <tripinfo id="left_76" depart="221.00" departLane="52o_0" departPos="5.10" departSpeed="0.00" departDelay="2.00" arrival="611.00" arrivalLane="51i_0" arrivalPos="10.00" arrivalSpeed="11.42" duration="390.00" routeLength="1015.10" waitSteps="195" timeLoss="313.82" rerouteNo="0" devices="tripinfo_left_76" vType="typeWE" speedFactor="1.00" vaporized=""/>