<?xml version="1.0" encoding="UTF-8"?>

<!-- generated on Fri Sep  8 15:16:00 2017 by SUMO gui Version 0.30.0
<?xml version="1.0" encoding="UTF-8"?>

<configuration xmlns:xsi="http://www.w3.org/2001/XMLSchema-instance" xsi:noNamespaceSchemaLocation="http://sumo.dlr.de/xsd/sumoConfiguration.xsd">

    <input>
        <net-file value="data/cross.net.xml"/>
        <route-files value="data/cross.rou.xml"/>
        <additional-files value="data/cross1.det.xml"/>
    </input>

    <output>
        <tripinfo-output value="tripinfo.xml"/>
    </output>

    <time>
        <begin value="0"/>
    </time>

    <report>
        <verbose value="true"/>
        <no-step-log value="true"/>
    </report>

    <traci_server>
        <remote-port value="50503"/>
    </traci_server>

    <gui_only>
        <gui-settings-file value="data/gui.settings.xml"/>
        <start value="true"/>
    </gui_only>

</configuration>
-->

<tripinfos xmlns:xsi="http://www.w3.org/2001/XMLSchema-instance" xsi:noNamespaceSchemaLocation="http://sumo.dlr.de/xsd/tripinfo_file.xsd">
    <tripinfo id="down_0" depart="367.00" departLane="54o_0" departPos="5.10" departSpeed="0.00" departDelay="0.00" arrival="470.00" arrivalLane="53i_0" arrivalPos="10.00" arrivalSpeed="11.38" duration="103.00" routeLength="1015.10" waitSteps="1" timeLoss="26.44" rerouteNo="0" devices="tripinfo_down_0" vType="typeNS" speedFactor="1.00" vaporized=""/>
    <tripinfo id="down_1" depart="572.00" departLane="54o_0" departPos="5.10" departSpeed="0.00" departDelay="0.00" arrival="675.00" arrivalLane="53i_0" arrivalPos="10.00" arrivalSpeed="11.31" duration="103.00" routeLength="1015.10" waitSteps="1" timeLoss="27.21" rerouteNo="0" devices="tripinfo_down_1" vType="typeNS" speedFactor="1.00" vaporized=""/>
    <tripinfo id="down_2" depart="3012.00" departLane="54o_0" departPos="5.10" departSpeed="0.00" departDelay="0.00" arrival="3201.00" arrivalLane="53i_0" arrivalPos="10.00" arrivalSpeed="11.85" duration="189.00" routeLength="1015.10" waitSteps="87" timeLoss="112.31" rerouteNo="0" devices="tripinfo_down_2" vType="typeNS" speedFactor="1.00" vaporized=""/>
    <tripinfo id="down_3" depart="3099.00" departLane="54o_0" departPos="5.10" departSpeed="0.00" departDelay="0.00" arrival="3285.00" arrivalLane="53i_0" arrivalPos="10.00" arrivalSpeed="11.50" duration="186.00" routeLength="1015.10" waitSteps="78" timeLoss="110.18" rerouteNo="0" devices="tripinfo_down_3" vType="typeNS" speedFactor="1.00" vaporized=""/>
    <tripinfo id="down_4" depart="4057.00" departLane="54o_0" departPos="5.10" departSpeed="0.00" departDelay="0.00" arrival="4276.00" arrivalLane="53i_0" arrivalPos="10.00" arrivalSpeed="11.83" duration="219.00" routeLength="1015.10" waitSteps="115" timeLoss="142.86" rerouteNo="0" devices="tripinfo_down_4" vType="typeNS" speedFactor="1.00" vaporized=""/>
    <tripinfo id="down_5" depart="4888.00" departLane="54o_0" departPos="5.10" departSpeed="0.00" departDelay="0.00" arrival="5129.00" arrivalLane="53i_0" arrivalPos="10.00" arrivalSpeed="11.69" duration="241.00" routeLength="1015.10" waitSteps="138" timeLoss="164.78" rerouteNo="0" devices="tripinfo_down_5" vType="typeNS" speedFactor="1.00" vaporized=""/>
    <tripinfo id="down_6" depart="5087.00" departLane="54o_0" departPos="5.10" departSpeed="0.00" departDelay="0.00" arrival="5362.00" arrivalLane="53i_0" arrivalPos="10.00" arrivalSpeed="11.44" duration="275.00" routeLength="1015.10" waitSteps="171" timeLoss="198.95" rerouteNo="0" devices="tripinfo_down_6" vType="typeNS" speedFactor="1.00" vaporized=""/>
    <tripinfo id="down_7" depart="5250.00" departLane="54o_0" departPos="5.10" departSpeed="0.00" departDelay="0.00" arrival="5595.00" arrivalLane="53i_0" arrivalPos="10.00" arrivalSpeed="11.54" duration="345.00" routeLength="1015.10" waitSteps="236" timeLoss="268.94" rerouteNo="0" devices="tripinfo_down_7" vType="typeNS" speedFactor="1.00" vaporized=""/>
    <tripinfo id="down_8" depart="9622.00" departLane="54o_0" departPos="5.10" departSpeed="0.00" departDelay="0.00" arrival="9806.00" arrivalLane="53i_0" arrivalPos="10.00" arrivalSpeed="11.45" duration="184.00" routeLength="1015.10" waitSteps="83" timeLoss="108.06" rerouteNo="0" devices="tripinfo_down_8" vType="typeNS" speedFactor="1.00" vaporized=""/>
    <tripinfo id="down_9" depart="10281.00" departLane="54o_0" departPos="5.10" departSpeed="0.00" departDelay="0.00" arrival="10372.00" arrivalLane="53i_0" arrivalPos="10.00" arrivalSpeed="11.52" duration="91.00" routeLength="1015.10" waitSteps="0" timeLoss="14.68" rerouteNo="0" devices="tripinfo_down_9" vType="typeNS" speedFactor="1.00" vaporized=""/>
    <tripinfo id="down_10" depart="11375.00" departLane="54o_0" departPos="5.10" departSpeed="0.00" departDelay="0.00" arrival="11563.00" arrivalLane="53i_0" arrivalPos="10.00" arrivalSpeed="11.67" duration="188.00" routeLength="1015.10" waitSteps="85" timeLoss="111.70" rerouteNo="0" devices="tripinfo_down_10" vType="typeNS" speedFactor="1.00" vaporized=""/>
    <tripinfo id="down_11" depart="11701.00" departLane="54o_0" departPos="5.10" departSpeed="0.00" departDelay="0.00" arrival="11905.00" arrivalLane="53i_0" arrivalPos="10.00" arrivalSpeed="11.38" duration="204.00" routeLength="1015.10" waitSteps="101" timeLoss="127.78" rerouteNo="0" devices="tripinfo_down_11" vType="typeNS" speedFactor="1.00" vaporized=""/>
    <tripinfo id="down_12" depart="11734.00" departLane="54o_0" departPos="5.10" departSpeed="0.00" departDelay="0.00" arrival="11953.00" arrivalLane="53i_0" arrivalPos="10.00" arrivalSpeed="11.31" duration="219.00" routeLength="1015.10" waitSteps="111" timeLoss="142.73" rerouteNo="0" devices="tripinfo_down_12" vType="typeNS" speedFactor="1.00" vaporized=""/>
    <tripinfo id="down_13" depart="13482.00" departLane="54o_0" departPos="5.10" departSpeed="0.00" departDelay="0.00" arrival="13638.00" arrivalLane="53i_0" arrivalPos="10.00" arrivalSpeed="11.58" duration="156.00" routeLength="1015.10" waitSteps="54" timeLoss="79.62" rerouteNo="0" devices="tripinfo_down_13" vType="typeNS" speedFactor="1.00" vaporized=""/>
    <tripinfo id="down_14" depart="16727.00" departLane="54o_0" departPos="5.10" departSpeed="0.00" departDelay="0.00" arrival="17110.00" arrivalLane="53i_0" arrivalPos="10.00" arrivalSpeed="10.83" duration="383.00" routeLength="1015.10" waitSteps="280" timeLoss="306.93" rerouteNo="0" devices="tripinfo_down_14" vType="typeNS" speedFactor="1.00" vaporized=""/>
    <tripinfo id="down_15" depart="18579.00" departLane="54o_0" departPos="5.10" departSpeed="0.00" departDelay="0.00" arrival="18915.00" arrivalLane="53i_0" arrivalPos="10.00" arrivalSpeed="11.42" duration="336.00" routeLength="1015.10" waitSteps="235" timeLoss="260.02" rerouteNo="0" devices="tripinfo_down_15" vType="typeNS" speedFactor="1.00" vaporized=""/>
    <tripinfo id="down_16" depart="18779.00" departLane="54o_0" departPos="5.10" departSpeed="0.00" departDelay="0.00" arrival="18947.00" arrivalLane="53i_0" arrivalPos="10.00" arrivalSpeed="11.34" duration="168.00" routeLength="1015.10" waitSteps="60" timeLoss="91.54" rerouteNo="0" devices="tripinfo_down_16" vType="typeNS" speedFactor="1.00" vaporized=""/>
    <tripinfo id="down_17" depart="25142.00" departLane="54o_0" departPos="5.10" departSpeed="0.00" departDelay="0.00" arrival="25464.00" arrivalLane="53i_0" arrivalPos="10.00" arrivalSpeed="11.41" duration="322.00" routeLength="1015.10" waitSteps="220" timeLoss="245.63" rerouteNo="0" devices="tripinfo_down_17" vType="typeNS" speedFactor="1.00" vaporized=""/>
    <tripinfo id="down_18" depart="25407.00" departLane="54o_0" departPos="5.10" departSpeed="0.00" departDelay="0.00" arrival="25643.00" arrivalLane="53i_0" arrivalPos="10.00" arrivalSpeed="11.40" duration="236.00" routeLength="1015.10" waitSteps="134" timeLoss="160.16" rerouteNo="0" devices="tripinfo_down_18" vType="typeNS" speedFactor="1.00" vaporized=""/>
    <tripinfo id="down_19" depart="25760.00" departLane="54o_0" departPos="5.10" departSpeed="0.00" departDelay="0.00" arrival="26218.00" arrivalLane="53i_0" arrivalPos="10.00" arrivalSpeed="11.50" duration="458.00" routeLength="1015.10" waitSteps="364" timeLoss="383.23" rerouteNo="0" devices="tripinfo_down_19" vType="typeNS" speedFactor="1.00" vaporized=""/>
    <tripinfo id="down_20" depart="25888.00" departLane="54o_0" departPos="5.10" departSpeed="0.00" departDelay="0.00" arrival="26525.00" arrivalLane="53i_0" arrivalPos="10.00" arrivalSpeed="11.33" duration="637.00" routeLength="1015.10" waitSteps="539" timeLoss="562.28" rerouteNo="0" devices="tripinfo_down_20" vType="typeNS" speedFactor="1.00" vaporized=""/>
    <tripinfo id="down_21" depart="26268.00" departLane="54o_0" departPos="5.10" departSpeed="0.00" departDelay="0.00" arrival="26781.00" arrivalLane="53i_0" arrivalPos="10.00" arrivalSpeed="11.50" duration="513.00" routeLength="1015.10" waitSteps="405" timeLoss="436.96" rerouteNo="0" devices="tripinfo_down_21" vType="typeNS" speedFactor="1.00" vaporized=""/>
    <tripinfo id="down_22" depart="27011.00" departLane="54o_0" departPos="5.10" departSpeed="0.00" departDelay="0.00" arrival="27550.00" arriva