<?xml version="1.0" encoding="UTF-8"?>

<!-- generated on Thu Sep  7 15:07:47 2017 by SUMO gui Version 0.30.0
<?xml version="1.0" encoding="UTF-8"?>

<configuration xmlns:xsi="http://www.w3.org/2001/XMLSchema-instance" xsi:noNamespaceSchemaLocation="http://sumo.dlr.de/xsd/sumoConfiguration.xsd">

    <input>
        <net-file value="data/cross.net.xml"/>
        <route-files value="data/cross.rou.xml"/>
        <additional-files value="data/cross1.det.xml"/>
    </input>

    <output>
        <tripinfo-output value="tripinfo.xml"/>
    </output>

    <time>
        <begin value="0"/>
    </time>

    <report>
        <verbose value="true"/>
        <no-step-log value="true"/>
    </report>

    <traci_server>
        <remote-port value="52802"/>
    </traci_server>

    <gui_only>
        <gui-settings-file value="data/gui.settings.xml"/>
    </gui_only>

</configuration>
-->

<tripinfos xmlns:xsi="http://www.w3.org/2001/XMLSchema-instance" xsi:noNamespaceSchemaLocation="http://sumo.dlr.de/xsd/tripinfo_file.xsd">
    <tripinfo id="left_0" depart="1.00" departLane="52o_0" departPos="5.10" departSpeed="0.00" departDelay="0.00" arrival="111.00" arrivalLane="51i_0" arrivalPos="10.00" arrivalSpeed="11.41" duration="110.00" routeLength="1015.10" waitSteps="8" timeLoss="33.98" rerouteNo="0" devices="tripinfo_left_0" vType="typeWE" speedFactor="1.00" vaporized=""/>
    <tripinfo id="left_1" depart="13.00" departLane="52o_0" departPos="5.10" departSpeed="0.00" departDelay="0.00" arrival="113.00" arrivalLane="51i_0" arrivalPos="10.00" arrivalSpeed="11.68" duration="100.00" routeLength="1015.10" waitSteps="0" timeLoss="24.00" rerouteNo="0" devices="tripinfo_left_1" vType="typeWE" speedFactor="1.00" vaporized=""/>
    <tripinfo id="down_2" depart="28.00" departLane="54o_0" departPos="7.10" departSpeed="0.00" departDelay="0.00" arrival="118.00" arrivalLane="53i_0" arrivalPos="10.00" arrivalSpeed="11.29" duration="90.00" routeLength="1013.10" waitSteps="0" timeLoss="18.44" rerouteNo="0" devices="tripinfo_down_2" vType="typeNS" speedFactor="1.00" vaporized=""/>
    <tripinfo id="left_3" depart="41.00" departLane="52o_0" departPos="5.10" departSpeed="0.00" departDelay="0.00" arrival="162.00" arrivalLane="51i_0" arrivalPos="10.00" arrivalSpeed="11.02" duration="121.00" routeLength="1015.10" waitSteps="17" timeLoss="44.94" rerouteNo="0" devices="tripinfo_left_3" vType="typeWE" speedFactor="1.00" vaporized=""/>
    <tripinfo id="left_4" depart="46.00" departLane="52o_0" departPos="5.10" departSpeed="0.00" departDelay="4.00" arrival="180.00" arrivalLane="51i_0" arrivalPos="10.00" arrivalSpeed="11.75" duration="134.00" routeLength="1015.10" waitSteps="24" timeLoss="57.49" rerouteNo="0" devices="tripinfo_left_4" vType="typeWE" speedFactor="1.00" vaporized=""/>
    <tripinfo id="left_5" depart="51.00" departLane="52o_0" departPos="5.10" departSpeed="0.00" departDelay="4.00" arrival="200.00" arrivalLane="51i_0" arrivalPos="10.00" arrivalSpeed="11.04" duration="149.00" routeLength="1015.10" waitSteps="34" timeLoss="72.88" rerouteNo="0" devices="tripinfo_left_5" vType="typeWE" speedFactor="1.00" vaporized=""/>
    <tripinfo id="left_6" depart="66.00" departLane="52o_0" departPos="5.10" departSpeed="0.00" departDelay="0.00" arrival="219.00" arrivalLane="51i_0" arrivalPos="10.00" arrivalSpeed="11.49" duration="153.00" routeLength="1015.10" waitSteps="32" timeLoss="76.33" rerouteNo="0" devices="tripinfo_left_6" vType="typeWE" speedFactor="1.00" vaporized=""/>
    <tripinfo id="left_7" depart="78.00" departLane="52o_0" departPos="5.10" departSpeed="0.00" departDelay="0.00" arrival="221.00" arrivalLane="51i_0" arrivalPos="10.00" arrivalSpeed="11.26" duration="143.00" routeLength="1015.10" waitSteps="26" timeLoss="66.91" rerouteNo="0" devices="tripinfo_left_7" vType="typeWE" speedFactor="1.00" vaporized=""/>
    <tripinfo id="down_9" depart="110.00" departLane="54o_0" departPos="7.10" departSpeed="0.00" departDelay="0.00" arrival="231.00" arrivalLane="53i_0" arrivalPos="10.00" arrivalSpeed="11.55" duration="121.00" routeLength="1013.10" waitSteps="20" timeLoss="49.63" rerouteNo="0" devices="tripinfo_down_9" vType="typeNS" speedFactor="1.00" vaporized=""/>
    <tripinfo id="left_8" depart="103.00" departLane="52o_0" departPos="5.10" departSpeed="0.00" departDelay="0.00" arrival="238.00" arrivalLane="51i_0" arrivalPos="10.00" arrivalSpeed="11.36" duration="135.00" routeLength="1015.10" waitSteps="19" timeLoss="59.05" rerouteNo="0" devices="tripinfo_left_8" vType="typeWE" speedFactor="1.00" vaporized=""/>
    <tripinfo id="down_10" depart="126.00" departLane="54o_0" departPos="7.10" departSpeed="0.00" departDelay="0.00" arrival="253.00" arrivalLane="53i_0" arrivalPos="10.00" arrivalSpeed="11.63" duration="127.00" routeLength="1013.10" waitSteps="22" timeLoss="55.61" rerouteNo="0" devices="tripinfo_down_10" vType="typeNS" speedFactor="1.00" vaporized=""/>
    <tripinfo id="down_11" depart="149.00" departLane="54o_0" departPos="7.10" departSpeed="0.00" departDelay="0.00" arrival="271.00" arrivalLane="53i_0" arrivalPos="10.00" arrivalSpeed="11.54" duration="122.00" routeLength="1013.10" waitSteps="16" timeLoss="50.06" rerouteNo="0" devices="tripinfo_down_11" vType="typeNS" speedFactor="1.00" vaporized=""/>
    <tripinfo id="left_12" depart="153.00" departLane="52o_0" departPos="5.10" departSpeed="0.00" departDelay="0.00" arrival="282.00" arrivalLane="51i_0" arrivalPos="10.00" arrivalSpeed="11.24" duration="129.00" routeLength="1015.10" waitSteps="25" timeLoss="52.92" rerouteNo="0" devices="tripinfo_left_12" vType="typeWE" speedFactor="1.00" vaporized=""/>
    <tripinfo id="left_13" depart="198.00" departLane="52o_0" departPos="5.10" departSpeed="0.00" departDelay="0.00" arrival="291.00" arrivalLane="51i_0" arrivalPos="10.00" arrivalSpeed="11.41" duration="93.00" routeLength="1015.10" waitSteps="0" timeLoss="16.46" rerouteNo="0" devices="tripinfo_left_13" vType="typeWE" speedFactor="1.00" vaporized=""/>
    <tripinfo id="down_14" depart="198.00" departLane="54o_0" departPos="7.10" departSpeed="0.00" departDelay="0.00" arrival="307.00" arrivalLane="53i_0" arrivalPos="10.00" arrivalSpeed="11.54" duration="109.00" routeLength="1013.10" waitSteps="10" timeLoss="37.41" rerouteNo="0" devices="tripinfo_down_14" vType="typeNS" speedFactor="1.00" vaporized=""/>
    <tripinfo id="down_16" depart="213.00" departLane="54o_0" departPos="7.10" departSpeed="0.00" departDelay="0.00" arrival="309.00" arrivalLane="53i_0" arrivalPos="10.00" arrivalSpeed="11.35" duration="96.00" routeLength="1013.10" waitSteps="0" timeLoss="24.59" rerouteNo="0" devices="tripinfo_down_16" vType="typeNS" speedFactor="1.00" vaporized=""/>
    <tripinfo id="down_18" depart="243.00" departLane="54o_0" departPos="7.10" departSpeed="0.00" departDelay="0.00" arrival="332.00" arrivalLane="53i_0" arrivalPos="10.00" arrivalSpeed="11.46" duration="89.00" routeLength="1013.10" waitSteps="0" timeLoss="17.29" rerouteNo="0" devices="tripinfo_down_18" vType="typeNS" speedFactor="1.00" vaporized=""/>
    <tripinfo id="left_15" depart="205.00" departLane="52o_0" departPos="5.10" departSpeed="0.00" departDelay="0.00" arrival="356.00" arrivalLane="51i_0" arrivalPos="10.00" arrivalSpeed="11.20" duration="151.00" routeLength="1015.10" waitSteps="49" timeLoss="74.93" rerouteNo="0" devices="tripinfo_left_15" vType="typeWE" speedFactor="1.00" vaporized=""/>
    <tripinfo id="left_17" depart="229.00" departLane="52o_0" departPos="5.10" departSpeed="0.00" departDelay="0.00" arrival="376.00" arrivalLane="51i_0" arrivalPos="10.00" arrivalSpeed="11.62" duration="147.00" routeLength="1015.10" waitSteps="35" timeLoss="70.72" rerouteNo="0" devices="tripinfo_left_17" vType="typeWE" speedFactor="1.00" vaporized=""/>
    <tripinfo id="left_19" depart="270.00" departLane="52o_0" departPos="5.10" departSpeed="0.00" departDelay="0.00" arrival="378.00" arrivalLane="51i_0" arrivalPos="10.00" arrivalSpeed="10.01" duration="108.00" routeLength="1015.10" waitSteps="5" timeLoss="32.00" rerouteNo="0" devices="tripinfo_left_19" vType="typeWE" speedFactor="1.00" vaporized=""/>
    <tripinfo id="down_20" depart="290.00" departLane="54o_0" departPos="7.10" departSpeed="0.00" departDelay="0.00" arrival="380.00" arrivalLane="53i_0" arrivalPos="10.00" arrivalSpeed="11.63" duration="90.00" routeLength="1013.10" waitSteps="0" timeLoss="17.98" rerouteNo="0" devices="tripinfo_down_20" vType="typeNS" speedFactor="1.00" vaporized=""/>
    <tripinfo id="down_21" depart="300.00" departLane="54o_0" departPos="7.10" departSpeed="0.00" departDelay="0.00" arrival="416.00" arrivalLane="53i_0" arrivalPos="10.00" arrivalSpeed="11.27" duration="116.00" routeLength="1013.10" waitSteps="15" timeLoss="44.26" rerouteNo="0" devices="tripinfo_down_21" vType="typeNS" speedFactor="1.00" vaporized=""/>
    <tripinfo id="down_22" depart="306.00" departLane="54o_0" departPos="7.10" departSpeed="0.00" departDelay="1.00" arrival="446.00" arrivalLane="53i_0" arrivalPos="10.00" arrivalSpeed="11.52" duration="140.00" routeLength="1013.10" waitSteps="34" timeLoss="68.02" rerouteNo="0" devices="tripinfo_down_22" vType="typeNS" speedFactor="1.00" vaporized=""/>
    <tripinfo id="down_23" depart="314.00" departLane="54o_0" departPos="7.10" departSpeed="0.00" departDelay="0.00" arrival="465.00" arrivalLane="53i_0" arrivalPos="10.00" arrivalSpeed="11.34" duration="151.00" routeLength="1013.10" waitSteps="37" timeLoss="78.99" rerouteNo="0" devices="tripinfo_down_23" vType="typeNS" speedFactor="1.00" vaporized=""/>
    <tripinfo id="left_26" depart="363.00" departLane="52o_0" departPos="5.10" departSpeed="0.00" departDelay="0.00" arrival="487.00" arrivalLane="51i_0" arrivalPos="10.00" arrivalSpeed="11.28" duration="124.00" routeLength="1015.10" waitSteps="20" timeLoss="47.76" rerouteNo="0" devices="tripinfo_left_26" vType="typeWE" speedFactor="1.00" vaporized=""/>
    <tripinfo id="left_29" depart="416.00" departLane="52o_0" departPos="5.10" departSpeed="0.00" departDelay="0.00" arrival="509.00" arrivalLane="51i_0" arrivalPos="10.00" arrivalSpeed="11.22" duration="93.00" routeLength="1015.10" waitSteps="0" timeLoss="17.25" rerouteNo="0" devices="tripinfo_left_29" vType="typeWE" speedFactor="1.00" vaporized=""/>
    <tripinfo id="down_24" depart="343.00" departLane="54o_0" departPos="7.10" departSpeed="0.00" departDelay="0.00" arrival="522.00" arrivalLane="53i_0" arrivalPos="10.00" arrivalSpeed="11.52" duration="179.00" routeLength="1013.10" waitSteps="64" timeLoss="106.96" rerouteNo="0" devices="tripinfo_down_24" vType="typeNS" speedFactor="1.00" vaporized=""/>
    <tripinfo id="down_25" depart="356.00" departLane="54o_0" departPos="7.10" departSpeed="0.00" departDelay="0.00" arrival="524.00" arrivalLane="53i_0" arrivalPos="10.00" arrivalSpeed="10.76" duration="168.00" routeLength="1013.10" waitSteps="57" timeLoss="96.37" rerouteNo="0" devices="tripinfo_down_25" vType="typeNS" speedFactor="1.00" vaporized=""/>
    <tripinfo id="left_31" depart="439.00" departLane="52o_0" departPos="5.10" departSpeed="0.00" departDelay="0.00" arrival="530.00" arrivalLane="51i_0" arrivalPos="10.00" arrivalSpeed="11.54" duration="91.00" routeLength="1015.10" waitSteps="0" timeLoss="15.01" rerouteNo="0" devices="tripinfo_left_31" vType="typeWE" speedFactor="1.00" vaporized=""/>
    <tripinfo id="down_27" depart="390.00" departLane="54o_0" departPos="7.10" departSpeed="0.00" departDelay="0.00" arrival="545.00" arrivalLane="53i_0" arrivalPos="10.00" arrivalSpeed="11.72" duration="155.00" routeLength="1013.10" waitSteps="46" timeLoss="83.41" rerouteNo="0" devices="tripinfo_down_27" vType="typeNS" speedFactor="1.00" vaporized=""/>
    <tripinfo id="left_32" depart="444.00" departLane="52o_0" departPos="5.10" departSpeed="0.00" departDelay="2.00" arrival="553.00" arrivalLane="51i_0" arrivalPos="10.00" arrivalSpeed="11.38" duration="109.00" routeLength="1015.10" waitSteps="8" timeLoss="33.07" rerouteNo="0" devices="tripinfo_left_32" vType="typeWE" speedFactor="1.00" vaporized=""/>
    <tripinfo id="down_28" depart="395.00" departLane="54o_0" departPos="7.10" departSpeed="0.00" departDelay="2.00" arrival="575.00" arrivalLane="53i_0" arrivalPos="10.00" arrivalSpeed="11.41" duration="180.00" routeLength="1013.10" waitSteps="63" timeLoss="108.54" rerouteNo="0" devices="tripinfo_down_28" vType="typeNS" speedFactor="1.00" vaporized=""/>
    <tripinfo id="left_33" depart="449.00" departLane="52o_0" departPos="5.10" departSpeed="0.00" departDelay="5.00" arrival="583.00" arrivalLane="51i_0" arrivalPos="10.00" arrivalSpeed="11.77" duration="134.00" routeLength="1015.10" waitSteps="25" timeLoss="57.64" rerouteNo="0" devices="tripinfo_left_33" vType="typeWE" speedFactor="1.00" vaporized=""/>
    <tripinfo id="down_30" depart="424.00" departLane="54o_0" departPos="7.10" departSpeed="0.00" departDelay="0.00" arrival="591.00" arrivalLane="53i_0" arrivalPos="10.00" arrivalSpeed="10.91" duration="167.00" routeLength="1013.10" waitSteps="46" timeLoss="95.40" rerouteNo="0" devices="tripinfo_down_30" vType="typeNS" speedFactor="1.00" vaporized=""/>
    <tripinfo id="left_34" depart="486.00" departLane="52o_0" departPos="5.10" departSpeed="0.00" departDelay="0.00" arrival="604.00" arrivalLane="51i_0" arrivalPos="10.00" arrivalSpeed="11.77" duration="118.00" routeLength="1015.10" waitSteps="15" timeLoss="42.07" rerouteNo="0" devices="tripinfo_left_34" vType="typeWE" speedFactor="1.00" vaporized=""/>
    <tripinfo id="down_35" depart="496.00" departLane="54o_0" departPos="7.10" departSpeed="0.00" departDelay="0.00" arrival="621.00" arrivalLane="53i_0" arrivalPos="10.00" arrivalSpeed="11.33" duration="125.00" routeLength="1013.10" waitSteps="23" timeLoss="53.74" rerouteNo="0" devices="tripinfo_down_35" vType="typeNS" speedFactor="1.00" vaporized=""/>
    <tripinfo id="left_36" depart="519.00" departLane="52o_0" departPos="5.10" departSpeed="0.00" departDelay="0.00" arrival="635.00" arrivalLane="51i_0" arrivalPos="10.00" arrivalSpeed="11.39" duration="116.00" routeLength="1015.10" waitSteps="15" timeLoss="39.64" rerouteNo="0" devices="tripinfo_left_36" vType="typeWE" speedFactor="1.00" vaporized=""/>
    <tripinfo id="left_37" depart="541.00" departLane="52o_0" departPos="5.10" departSpeed="0.00" departDelay="0.00" arrival="637.00" arrivalLane="51i_0" arrivalPos="10.00" arrivalSpeed="10.38" duration="96.00" routeLength="1015.10" waitSteps="0" timeLoss="19.90" rerouteNo="0" devices="tripinfo_left_37" vType="typeWE" speedFactor="1.00" vaporized=""/>
    <tripinfo id="left_38" depart="596.00" departLane="52o_0" departPos="5.10" departSpeed="0.00" departDelay="0.00" arrival="706.00" arrivalLane="51i_0" arrivalPos="10.00" arrivalSpeed="11.43" duration="110.00" routeLength="1015.10" waitSteps="9" timeLoss="33.81" rerouteNo="0" devices="tripinfo_left_38" vType="typeWE" speedFactor="1.00" vaporized=""/>
    <tripinfo id="down_39" depart="626.00" departLane="54o_0" departPos="7.10" departSpeed="0.00" departDelay="0.00" arrival="738.00" arrivalLane="53i_0" arrivalPos="10.00" arrivalSpeed="11.46" duration="112.00" routeLength="1013.10" waitSteps="11" timeLoss="40.55" rerouteNo="0" devices="tripinfo_down_39" vType="typeNS" speedFactor="1.00" vaporized=""/>
    <tripinfo id="down_40" depart="639.00" departLane="54o_0" departPos="7.10" departSpeed="0.00" departDelay="0.00" arrival="740.00" arrivalLane="53i_0" arrivalPos="10.00" arrivalSpeed="11.78" duration="101.00" routeLength="1013.10" waitSteps="0" timeLoss="29.59" rerouteNo="0" devices="tripinfo_down_40" vType="typeNS" speedFactor="1.00" vaporized=""/>
    <tripinfo id="down_41" depart="671.00" departLane="54o_0" departPos="7.10" departSpeed="0.00" departDelay="0.00" arrival="761.00" arrivalLane="53i_0" arrivalPos="10.00" arrivalSpeed="11.18" duration="90.00" routeLength="1013.10" waitSteps="0" timeLoss="17.90" rerouteNo="0" devices="tripinfo_down_41" vType="typeNS" speedFactor="1.00" vaporized=""/>
    <tripinfo id="down_42" depart="677.00" departLane="54o_0" departPos="7.10" departSpeed="0.00" departDelay="0.00" arrival="766.00" arrivalLane="53i_0" arrivalPos="10.00" arrivalSpeed="11.49" duration="89.00" routeLength="1013.10" waitSteps="0" timeLoss="16.63" rerouteNo="0" devices="tripinfo_down_42" vType="typeNS" speedFactor="1.00" vaporized=""/>
    <tripinfo id="left_43" depart="678.00" departLane="52o_0" departPos="5.10" departSpeed="0.00" departDelay="0.00" arrival="774.00" arrivalLane="51i_0" arrivalPos="10.00" arrivalSpeed="11.58" duration="96.00" routeLength="1015.10" waitSteps="0" timeLoss="19.50" rerouteNo="0" devices="tripinfo_left_43" vType="typeWE" speedFactor="1.00" vaporized=""/>
    <tripinfo id="down_44" depart="708.00" departLane="54o_0" departPos="7.10" departSpeed="0.00" departDelay="0.00" arrival="797.00" arrivalLane="53i_0" arrivalPos="10.00" arrivalSpeed="11.25" duration="89.00" routeLength="1013.10" waitSteps="0" timeLoss="17.32" rerouteNo="0" devices="tripinfo_down_44" vType="typeNS" speedFactor="1.00" vaporized=""/>
    <tripinfo id="left_45" depart="722.00" departLane="52o_0" departPos="5.10" departSpeed="0.00" departDelay="0.00" arrival="839.00" arrivalLane="51i_0" arrivalPos="10.00" arrivalSpeed="11.47" duration="117.00" routeLength="1015.10" waitSteps="14" timeLoss="40.97" rerouteNo="0" devices="tripinfo_left_45" vType="typeWE" speedFactor="1.00" vaporized=""/>
    <tripinfo id="left_46" depart="745.00" departLane="52o_0" departPos="5.10" departSpeed="0.00" departDelay="0.00" arrival="841.00" arrivalLane="51i_0" arrivalPos="10.00" arrivalSpeed="10.71" duration="96.00" routeLength="1015.10" waitSteps="0" timeLoss="19.98" rerouteNo="0" devices="tripinfo_left_46" vType="typeWE" speedFactor="1.00" vaporized=""/>
    <tripinfo id="down_48" depart="766.00" departLane="54o_0" departPos="7.10" departSpeed="0.00" departDelay="0.00" arrival="858.00" arrivalLane="53i_0" arrivalPos="10.00" arrivalSpeed="11.45" duration="92.00" routeLength="1013.10" waitSteps="0" timeLoss="20.22" rerouteNo="0" devices="tripinfo_down_48" vType="typeNS" speedFactor="1.00" vaporized=""/>
    <tripinfo id="left_47" depart="750.00" departLane="52o_0" departPos="5.10" departSpeed="0.00" departDelay="4.00" arrival="874.00" arrivalLane="51i_0" arrivalPos="10.00" arrivalSpeed="11.72" duration="124.00" routeLength="1015.10" waitSteps="19" timeLoss="48.18" rerouteNo="0" devices="tripinfo_left_47" vType="typeWE" speedFactor="1.00" vaporized=""/>
    <tripinfo id="down_50" depart="776.00" departLane="54o_0" departPos="7.10" departSpeed="0.00" departDelay="0.00" arrival="882.00" arrivalLane="53i_0" arrivalPos="10.00" arrivalSpeed="11.77" duration="106.00" routeLength="1013.10" waitSteps="6" timeLoss="33.99" rerouteNo="0" devices="tripinfo_down_50" vType="typeNS" speedFactor="1.00" vaporized=""/>
    <tripinfo id="left_49" depart="770.00" departLane="52o_0" departPos="5.10" departSpeed="0.00" departDelay="0.00" arrival="891.00" arrivalLane="51i_0" arrivalPos="10.00" arrivalSpeed="11.40" duration="121.00" routeLength="1015.10" waitSteps="13" timeLoss="45.20" rerouteNo="0" devices="tripinfo_left_49" vType="typeWE" speedFactor="1.00" vaporized=""/>
    <tripinfo id="left_53" depart="787.00" departLane="52o_0" departPos="5.10" departSpeed="0.00" departDelay="0.00" arrival="893.00" arrivalLane="51i_0" arrivalPos="10.00" arrivalSpeed="11.38" duration="106.00" routeLength="1015.10" waitSteps="3" timeLoss="30.25" rerouteNo="0" devices="tripinfo_left_53" vType="typeWE" speedFactor="1.00" vaporized=""/>
    <tripinfo id="down_51" depart="782.00" departLane="54o_0" departPos="7.10" departSpeed="0.00" departDelay="4.00" arrival="903.00" arrivalLane="53i_0" arrivalPos="10.00" arrivalSpeed="11.43" duration="121.00" routeLength="1013.10" waitSteps="14" timeLoss="49.33" rerouteNo="0" devices="tripinfo_down_51" vType="typeNS" speedFactor="1.00" vaporized=""/>
    <tripinfo id="down_52" depart="788.00" departLane="54o_0" departPos="7.10" departSpeed="0.00" departDelay="8.00" arrival="934.00" arrivalLane="53i_0" arrivalPos="10.00" arrivalSpeed="11.43" duration="146.00" routeLength="1013.10" waitSteps="36" timeLoss="74.61" rerouteNo="0" devices="tripinfo_down_52" vType="typeNS" speedFactor="1.00" vaporized=""/>
    <tripinfo id="left_58" depart="836.00" departLane="52o_0" departPos="5.10" departSpeed="0.00" departDelay="0.00" arrival="943.00" arrivalLane="51i_0" arrivalPos="10.00" arrivalSpeed="11.47" duration="107.00" routeLength="1015.10" waitSteps="4" timeLoss="30.52" rerouteNo="0" devices="tripinfo_left_58" vType="typeWE" speedFactor="1.00" vaporized=""/>
    <tripinfo id="left_59" depart="841.00" departLane="52o_0" departPos="5.10" departSpeed="0.00" departDelay="4.00" arrival="946.00" arrivalLane="51i_0" arrivalPos="10.00" arrivalSpeed="11.25" duration="105.00" routeLength="1015.10" waitSteps="3" timeLoss="28.42" rerouteNo="0" devices="tripinfo_left_59" vType="typeWE" speedFactor="1.00" vaporized=""/>
    <tripinfo id="down_54" depart="805.00" departLane="54o_0" departPos="7.10" departSpeed="0.00" departDelay="0.00" arrival="956.00" arrivalLane="53i_0" arrivalPos="10.00" arrivalSpeed="11.68" duration="151.00" routeLength="1013.10" waitSteps="37" timeLoss="79.52" rerouteNo="0" devices="tripinfo_down_54" vType="typeNS" speedFactor="1.00" vaporized=""/>
    <tripinfo id="down_55" depart="811.00" departLane="54o_0" departPos="7.10" departSpeed="0.00" departDelay="1.00" arrival="975.00" arrivalLane="53i_0" arrivalPos="10.00" arrivalSpeed="11.31" duration="164.00" routeLength="1013.10" waitSteps="46" timeLoss="92.57" rerouteNo="0" devices="tripinfo_down_55" vType="typeNS" speedFactor="1.00" vaporized=""/>
    <tripinfo id="left_63" depart="877.00" departLane="52o_0" departPos="5.10" departSpeed="0.00" departDelay="0.00" arrival="997.00" arrivalLane="51i_0" arrivalPos="10.00" arrivalSpeed="11.79" duration="120.00" routeLength="1015.10" waitSteps="16" timeLoss="44.14" rerouteNo="0" devices="tripinfo_left_63" vType="typeWE" speedFactor="1.00" vaporized=""/>
    <tripinfo id="down_56" depart="817.00" departLane="54o_0" departPos="7.10" departSpeed="0.00" departDelay="5.00" arrival="1027.00" arrivalLane="53i_0" arrivalPos="10.00" arrivalSpeed="11.34" duration="210.00" routeLength="1013.10" waitSteps="84" timeLoss="138.50" rerouteNo="0" devices="tripinfo_down_56" vType="typeNS" speedFactor="1.00" vaporized=""/>
    <tripinfo id="left_69" depart="935.00" departLane="52o_0" departPos="5.10" departSpeed="0.00" departDelay="0.00" arrival="1039.00" arrivalLane="51i_0" arrivalPos="10.00" arrivalSpeed="11.49" duration="104.00" routeLength="1015.10" waitSteps="1" timeLoss="27.97" rerouteNo="0" devices="tripinfo_left_69" vType="typeWE" speedFactor="1.00" vaporized=""/>
    <tripinfo id="down_57" depart="830.00" departLane="54o_0" departPos="7.10" departSpeed="0.00" departDelay="0.00" arrival="1047.00" arrivalLane="53i_0" arrivalPos="10.00" arrivalSpeed="11.40" duration="217.00" routeLength="1013.10" waitSteps="84" timeLoss="145.03" rerouteNo="0" devices="tripinfo_down_57" vType="typeNS" speedFactor="1.00" vaporized=""/>
    <tripinfo id="left_70" depart="940.00" departLane="52o_0" departPos="5.10" departSpeed="0.00" departDelay="4.00" arrival="1057.00" arrivalLane="51i_0" arrivalPos="10.00" arrivalSpeed="11.76" duration="117.00" routeLength="1015.10" waitSteps="11" timeLoss="40.51" rerouteNo="0" devices="tripinfo_left_70" vType="typeWE" speedFactor="1.00" vaporized=""/>
    <tripinfo id="left_71" depart="952.00" departLane="52o_0" departPos="5.10" departSpeed="0.00" departDelay="0.00" arrival="1059.00" arrivalLane="51i_0" arrivalPos="10.00" arrivalSpeed="8.80" duration="107.00" routeLength="1015.10" waitSteps="3" timeLoss="30.91" rerouteNo="0" devices="tripinfo_left_71" vType="typeWE" speedFactor="1.00" vaporized=""/>
    <tripinfo id="left_72" depart="957.00" departLane="52o_0" departPos="5.10" departSpeed="0.00" departDelay="4.00" arrival="1076.00" arrivalLane="51i_0" arrivalPos="10.00" arrivalSpeed="11.29" duration="119.00" routeLength="1015.10" waitSteps="10" timeLoss="42.87" rerouteNo="0" devices="tripinfo_left_72" vType="typeWE" speedFactor="1.00" vaporized=""/>
    <tripinfo id="down_60" depart="848.00" departLane="54o_0" departPos="7.10" departSpeed="0.00" departDelay="0.00" arrival="1086.00" arrivalLane="53i_0" arrivalPos="10.00" arrivalSpeed="11.66" duration="238.00" routeLength="1013.10" waitSteps="101" timeLoss="165.92" rerouteNo="0" devices="tripinfo_down_60" vType="typeNS" speedFactor="1.00" vaporized=""/>
    <tripinfo id="down_61" depart="855.00" departLane="54o_0" departPos="7.10" departSpeed="0.00" departDelay="0.00" arrival="1100.00" arrivalLane="53i_0" arrivalPos="10.00" arrivalSpeed="11.37" duration="245.00" routeLength="1013.10" waitSteps="102" timeLoss="173.24" rerouteNo="0" devices="tripinfo_down_61" vType="typeNS" speedFactor="1.00" vaporized=""/>
    <tripinfo id="left_73" depart="988.00" departLane="52o_0" departPos="5.10" departSpeed="0.00" departDelay="0.00" arrival="1108.00" arrivalLane="51i_0" arrivalPos="10.00" arrivalSpeed="11.66" duration="120.00" routeLength="1015.10" waitSteps="18" timeLoss="43.65" rerouteNo="0" devices="tripinfo_left_73" vType="typeWE" speedFactor="1.00" vaporized=""/>
    <tripinfo id="down_62" depart="865.00" departLane="54o_0" departPos="7.10" departSpeed="0.00" departDelay="0.00" arrival="1117.00" arrivalLane="53i_0" arrivalPos="10.00" arrivalSpeed="11.67" duration="252.00" routeLength="1013.10" waitSteps="98" timeLoss="179.98" rerouteNo="0" devices="tripinfo_down_62" vType="typeNS" speedFactor="1.00" vaporized=""/>
    <tripinfo id="down_64" depart="883.00" departLane="54o_0" departPos="7.10" departSpeed="0.00" departDelay="0.00" arrival="1119.00" arrivalLane="53i_0" arrivalPos="10.00" arrivalSpeed="11.14" duration="236.00" routeLength="1013.10" waitSteps="87" timeLoss="164.48" rerouteNo="0" devices="tripinfo_down_64" vType="typeNS" speedFactor="1.00" vaporized=""/>
    <tripinfo id="left_75" depart="1021.00" departLane="52o_0" departPos="5.10" departSpeed="0.00" departDelay="0.00" arrival="1146.00" arrivalLane="51i_0" arrivalPos="10.00" arrivalSpeed="11.71" duration="125.00" routeLength="1015.10" waitSteps="21" timeLoss="49.06" rerouteNo="0" devices="tripinfo_left_75" vType="typeWE" speedFactor="1.00" vaporized=""/>
    <tripinfo id="down_65" depart="890.00" departLane="54o_0" departPos="7.10" departSpeed="0.00" departDelay="0.00" arrival="1153.00" arrivalLane="53i_0" arrivalPos="10.00" arrivalSpeed="10.87" duration="263.00" routeLength="1013.10" waitSteps="109" timeLoss="191.43" rerouteNo="0" devices="tripinfo_down_65" vType="typeNS" speedFactor="1.00" vaporized=""/>
    <tripinfo id="left_76" depart="1071.00" departLane="52o_0" departPos="5.10" departSpeed="0.00" departDelay="0.00" arrival="1176.00" arrivalLane="51i_0" arrivalPos="10.00" arrivalSpeed="11.54" duration="105.00" routeLength="1015.10" waitSteps="1" timeLoss="28.57" rerouteNo="0" devices="tripinfo_left_76" vType="typeWE" speedFactor="1.00" vaporized=""/>
    <tripinfo id="down_66" depart="896.00" departLane="54o_0" departPos="7.10" departSpeed="0.00" departDelay="0.00" arrival="1188.00" arrivalLane="53i_0" arrivalPos="10.00" arrivalSpeed="11.38" duration="292.00" routeLength="1013.10" waitSteps="133" timeLoss="220.07" rerouteNo="0" devices="tripinfo_down_66" vType="typeNS" speedFactor="1.00" vaporized=""/>
    <tripinfo id="down_67" depart="912.00" departLane="54o_0" departPos="7.10" departSpeed="0.00" departDelay="0.00" arrival="1204.00" arrivalLane="53i_0" arrivalPos="10.00" arrivalSpeed="11.36" duration="292.00" routeLength="1013.10" waitSteps="124" timeLoss="219.85" rerouteNo="0" devices="tripinfo_down_67" vType="typeNS" speedFactor="1.00" vaporized=""/>
    <tripinfo id="left_78" depart="1110.00" departLane="52o_0" departPos="5.10" departSpeed="0.00" departDelay="0.00" arrival="1213.00" arrivalLane="51i_0" arrivalPos="10.00" arrivalSpeed="11.55" duration="103.00" routeLength="1015.10" waitSteps="1" timeLoss="26.87" rerouteNo="0" devices="tripinfo_left_78" vType="typeWE" speedFactor="1.00" vaporized=""/>
    <tripinfo id="left_79" depart="1115.00" departLane="52o_0" departPos="5.10" departSpeed="0.00" departDelay="3.00" arrival="1215.00" arrivalLane="51i_0" arrivalPos="10.00" arrivalSpeed="10.95" duration="100.00" routeLength="1015.10" waitSteps="0" timeLoss="23.96" rerouteNo="0" devices="tripinfo_left_79" vType="typeWE" speedFactor="1.00" vaporized=""/>
    <tripinfo id="down_68" depart="925.00" departLane="54o_0" departPos="7.10" departSpeed="0.00" departDelay="0.00" arrival="1231.00" arrivalLane="53i_0" arrivalPos="10.00" arrivalSpeed="11.19" duration="306.00" routeLength="1013.10" waitSteps="133" timeLoss="234.34" rerouteNo="0" devices="tripinfo_down_68" vType="typeNS" speedFactor="1.00" vaporized=""/>
    <tripinfo id="down_74" depart="1014.00" departLane="54o_0" departPos="7.10" departSpeed="0.00" departDelay="0.00" arrival="1234.00" arrivalLane="53i_0" arrivalPos="10.00" arrivalSpeed="11.51" duration="220.00" routeLength="1013.10" waitSteps="76" timeLoss="148.46" rerouteNo="0" devices="tripinfo_down_74" vType="typeNS" speedFactor="1.00" vaporized=""/>
    <tripinfo id="down_77" depart="1074.00" departLane="54o_0" departPos="7.10" departSpeed="0.00" departDelay="0.00" arrival="1236.00" arrivalLane="53i_0" arrivalPos="10.00" arrivalSpeed="11.66" duration="162.00" routeLength="1013.10" waitSteps="44" timeLoss="90.60" rerouteNo="0" devices="tripinfo_down_77" vType="typeNS" speedFactor="1.00" vaporized=""/>
    <tripinfo id="down_80" depart="1135.00" departLane="54o_0" departPos="7.10" departSpeed="0.00" departDelay="0.00" arrival="1238.00" arrivalLane="53i_0" arrivalPos="10.00" arrivalSpeed="11.53" duration="103.00" routeLength="1013.10" waitSteps="1" timeLoss="31.72" rerouteNo="0" devices="tripinfo_down_80" vType="typeNS" speedFactor="1.00" vaporized=""/>