<?xml version="1.0" encoding="UTF-8"?>

<!-- generated on Sat Sep  9 22:22:20 2017 by SUMO gui Version 0.30.0
<?xml version="1.0" encoding="UTF-8"?>

<configuration xmlns:xsi="http://www.w3.org/2001/XMLSchema-instance" xsi:noNamespaceSchemaLocation="http://sumo.dlr.de/xsd/sumoConfiguration.xsd">

    <input>
        <net-file value="data/cross.net.xml"/>
        <route-files value="data/cross.rou.xml"/>
        <additional-files value="data/cross1.det.xml"/>
    </input>

    <output>
        <tripinfo-output value="tripinfo.xml"/>
    </output>

    <time>
        <begin value="0"/>
    </time>

    <report>
        <verbose value="true"/>
        <no-step-log value="true"/>
    </report>

    <traci_server>
        <remote-port value="52071"/>
    </traci_server>

    <gui_only>
        <gui-settings-file value="data/gui.settings.xml"/>
        <start value="true"/>
    </gui_only>

</configuration>
-->

<tripinfos xmlns:xsi="http://www.w3.org/2001/XMLSchema-instance" xsi:noNamespaceSchemaLocation="http://sumo.dlr.de/xsd/tripinfo_file.xsd">
    <tripinfo id="left_0" depart="1.00" departLane="52o_0" departPos="5.10" departSpeed="0.00" departDelay="0.00" arrival="92.00" arrivalLane="51i_0" arrivalPos="10.00" arrivalSpeed="11.61" duration="91.00" routeLength="1015.10" waitSteps="0" timeLoss="14.78" rerouteNo="0" devices="tripinfo_left_0" vType="typeWE" speedFactor="1.00" vaporized=""/>
    <tripinfo id="right_1" depart="3.00" departLane="51o_0" departPos="5.10" departSpeed="0.00" departDelay="0.00" arrival="94.00" arrivalLane="52i_0" arrivalPos="10.00" arrivalSpeed="11.43" duration="91.00" routeLength="1015.10" waitSteps="0" timeLoss="14.55" rerouteNo="0" devices="tripinfo_right_1" vType="typeWE" speedFactor="1.00" vaporized=""/>
    <tripinfo id="left_2" depart="6.00" departLane="52o_0" departPos="5.10" departSpeed="0.00" departDelay="2.00" arrival="96.00" arrivalLane="51i_0" arrivalPos="10.00" arrivalSpeed="11.63" duration="90.00" routeLength="1015.10" waitSteps="0" timeLoss="13.68" rerouteNo="0" devices="tripinfo_left_2" vType="typeWE" speedFactor="1.00" vaporized=""/>
    <tripinfo id="up_3" depart="4.00" departLane="53o_0" departPos="5.10" departSpeed="0.00" departDelay="0.00" arrival="113.00" arrivalLane="54i_0" arrivalPos="10.00" arrivalSpeed="11.22" duration="109.00" routeLength="1015.10" waitSteps="7" timeLoss="32.96" rerouteNo="0" devices="tripinfo_up_3" vType="typeNS" speedFactor="1.00" vaporized=""/>
    <tripinfo id="down_8" depart="21.00" departLane="54o_0" departPos="5.10" departSpeed="0.00" departDelay="0.00" arrival="113.00" arrivalLane="53i_0" arrivalPos="10.00" arrivalSpeed="11.43" duration="92.00" routeLength="1015.10" waitSteps="0" timeLoss="15.68" rerouteNo="0" devices="tripinfo_down_8" vType="typeNS" speedFactor="1.00" vaporized=""/>
    <tripinfo id="up_5" depart="14.00" departLane="53o_0" departPos="5.10" departSpeed="0.00" departDelay="0.00" arrival="115.00" arrivalLane="54i_0" arrivalPos="10.00" arrivalSpeed="11.63" duration="101.00" routeLength="1015.10" waitSteps="0" timeLoss="25.10" rerouteNo="0" devices="tripinfo_up_5" vType="typeNS" speedFactor="1.00" vaporized=""/>
    <tripinfo id="up_6" depart="19.00" departLane="53o_0" departPos="5.10" departSpeed="0.00" departDelay="2.00" arrival="117.00" arrivalLane="54i_0" arrivalPos="10.00" arrivalSpeed="11.89" duration="98.00" routeLength="1015.10" waitSteps="0" timeLoss="22.12" rerouteNo="0" devices="tripinfo_up_6" vType="typeNS" speedFactor="1.00" vaporized=""/>
    <tripinfo id="down_9" depart="28.00" departLane="54o_0" departPos="5.10" departSpeed="0.00" departDelay="0.00" arrival="119.00" arrivalLane="53i_0" arrivalPos="10.00" arrivalSpeed="11.42" duration="91.00" routeLength="1015.10" waitSteps="0" timeLoss="14.64" rerouteNo="0" devices="tripinfo_down_9" vType="typeNS" speedFactor="1.00" vaporized=""/>
    <tripinfo id="up_12" depart="30.00" departLane="53o_0" departPos="5.10" departSpeed="0.00" departDelay="0.00" arrival="122.00" arrivalLane="54i_0" arrivalPos="10.00" arrivalSpeed="11.43" duration="92.00" routeLength="1015.10" waitSteps="0" timeLoss="15.71" rerouteNo="0" devices="tripinfo_up_12" vType="typeNS" speedFactor="1.00" vaporized=""/>
    <tripinfo id="down_10" depart="33.00" departLane="54o_0" departPos="5.10" departSpeed="0.00" departDelay="4.00" arrival="124.00" arrivalLane="53i_0" arrivalPos="10.00" arrivalSpeed="11.69" duration="91.00" routeLength="1015.10" waitSteps="0" timeLoss="14.80" rerouteNo="0" devices="tripinfo_down_10" vType="typeNS" speedFactor="1.00" vaporized=""/>
    <tripinfo id="left_4" depart="13.00" departLane="52o_0" departPos="5.10" departSpeed="0.00" departDelay="0.00" arrival="140.00" arrivalLane="51i_0" arrivalPos="10.00" arrivalSpeed="11.64" duration="127.00" routeLength="1015.10" waitSteps="25" timeLoss="50.79" rerouteNo="0" devices="tripinfo_left_4" vType="typeWE" speedFactor="1.00" vaporized=""/>
    <tripinfo id="right_7" depart="20.00" departLane="51o_0" departPos="5.10" departSpeed="0.00" departDelay="0.00" arrival="140.00" arrivalLane="52i_0" arrivalPos="10.00" arrivalSpeed="11.51" duration="120.00" routeLength="1015.10" waitSteps="18" timeLoss="43.78" rerouteNo="0" devices="tripinfo_right_7" vType="typeWE" speedFactor="1.00" vaporized=""/>
    <tripinfo id="up_17" depart="47.00" departLane="53o_0" departPos="5.10" departSpeed="0.00" departDelay="0.00" arrival="149.00" arrivalLane="54i_0" arrivalPos="10.00" arrivalSpeed="11.58" duration="102.00" routeLength="1015.10" waitSteps="1" timeLoss="26.15" rerouteNo="0" devices="tripinfo_up_17" vType="typeNS" speedFactor="1.00" vaporized=""/>
    <tripinfo id="down_13" depart="38.00" departLane="54o_0" departPos="5.10" departSpeed="0.00" departDelay="5.00" arrival="149.00" arrivalLane="53i_0" arrivalPos="10.00" arrivalSpeed="11.68" duration="111.00" routeLength="1015.10" waitSteps="8" timeLoss="35.18" rerouteNo="0" devices="tripinfo_down_13" vType="typeNS" speedFactor="1.00" vaporized=""/>
    <tripinfo id="up_18" depart="52.00" departLane="53o_0" departPos="5.10" departSpeed="0.00" departDelay="0.00" arrival="151.00" arrivalLane="54i_0" arrivalPos="10.00" arrivalSpeed="11.16" duration="99.00" routeLength="1015.10" waitSteps="0" timeLoss="22.98" rerouteNo="0" devices="tripinfo_up_18" vType="typeNS" speedFactor="1.00" vaporized=""/>
    <tripinfo id="down_14" depart="43.00" departLane="54o_0" departPos="5.10" departSpeed="0.00" departDelay="4.00" arrival="151.00" arrivalLane="53i_0" arrivalPos="10.00" arrivalSpeed="11.63" duration="108.00" routeLength="1015.10" waitSteps="5" timeLoss="32.12" rerouteNo="0" devices="tripinfo_down_14" vType="typeNS" speedFactor="1.00" vaporized=""/>
    <tripinfo id="down_19" depart="55.00" departLane="54o_0" departPos="5.10" departSpeed="0.00" departDelay="0.00" arrival="153.00" arrivalLane="53i_0" arrivalPos="10.00" arrivalSpeed="11.44" duration="98.00" routeLength="1015.10" waitSteps="0" timeLoss="22.06" rerouteNo="0" devices="tripinfo_down_19" vType="typeNS" speedFactor="1.00" vaporized=""/>
    <tripinfo id="down_20" depart="60.00" departLane="54o_0" departPos="5.10" departSpeed="0.00" departDelay="2.00" arrival="155.00" arrivalLane="53i_0" arrivalPos="10.00" arrivalSpeed="10.91" duration="95.00" routeLength="1015.10" waitSteps="0" timeLoss="18.95" rerouteNo="0" devices="tripinfo_down_20" vType="typeNS" speedFactor="1.00" vaporized=""/>
    <tripinfo id="right_24" depart="74.00" departLane="51o_0" departPos="5.10" departSpeed="0.00" departDelay="0.00" arrival="167.00" arrivalLane="52i_0" arrivalPos="10.00" arrivalSpeed="10.74" duration="93.00" routeLength="1015.10" waitSteps="0" timeLoss="16.98" rerouteNo="0" devices="tripinfo_right_24" vType="typeWE" speedFactor="1.00" vaporized=""/>
    <tripinfo id="left_11" depart="30.00" departLane="52o_0" departPos="5.10" departSpeed="0.00" departDelay="0.00" arrival="167.00" arrivalLane="51i_0" arrivalPos="10.00" arrivalSpeed="11.30" duration="137.00" routeLength="1015.10" waitSteps="30" timeLoss="61.09" rerouteNo="0" devices="tripinfo_left_11" vType="typeWE" speedFactor="1.00" vaporized=""/>
    <tripinfo id="up_25" depart="74.00" departLane="53o_0" departPos="5.10" departSpeed="0.00" departDelay="0.00" arrival="180.00" arrivalLane="54i_0" arrivalPos="10.00" arrivalSpeed="11.54" duration="106.00" routeLength="1015.10" waitSteps="2" timeLoss="29.79" rerouteNo="0" devices="tripinfo_up_25" vType="typeNS" speedFactor="1.00" vaporized=""/>
    <tripinfo id="down_21" depart="65.00" departLane="54o_0" departPos="5.10" departSpeed="0.00" departDelay="5.00" arrival="180.00" arrivalLane="53i_0" arrivalPos="10.00" arrivalSpeed="11.55" duration="115.00" routeLength="1015.10" waitSteps="12" timeLoss="38.74" rerouteNo="0" devices="tripinfo_down_21" vType="typeNS" speedFactor="1.00" vaporized=""/>
    <tripinfo id="up_26" depart="80.00" departLane="53o_0" departPos="5.10" departSpeed="0.00" departDelay="0.00" arrival="182.00" arrivalLane="54i_0" arrivalPos="10.00" arrivalSpeed="10.21" duration="102.00" routeLength="1015.10" waitSteps="0" timeLoss="25.90" rerouteNo="0" devices="tripinfo_up_26" vType="typeNS" speedFactor="1.00" vaporized=""/>
    <tripinfo id="down_22" depart="70.00" departLane="54o_0" departPos="5.10" departSpeed="0.00" departDelay="7.00" arrival="182.00" arrivalLane="53i_0" arrivalPos="10.00" arrivalSpeed="10.82" duration="112.00" routeLength="1015.10" waitSteps="8" timeLoss="35.88" rerouteNo="0" devices="tripinfo_down_22" vType="typeNS" speedFactor="1.00" vaporized=""/>
    <tripinfo id="right_29" depart="92.00" departLane="51o_0" departPos="5.10" departSpeed="0.00" departDelay="0.00" arrival="185.00" arrivalLane="52i_0" arrivalPos="10.00" arrivalSpeed="10.76" duration="93.00" routeLength="1015.10" waitSteps="0" timeLoss="16.91" rerouteNo="0" devices="tripinfo_right_29" vType="typeWE" speedFactor="1.00" vaporized=""/>
    <tripinfo id="left_15" depart="41.00" departLane="52o_0" departPos="5.10" departSpeed="0.00" departDelay="0.00" arrival="193.00" arrivalLane="51i_0" arrivalPos="10.00" arrivalSpeed="11.31" duration="152.00" routeLength="1015.10" waitSteps="36" timeLoss="75.86" rerouteNo="0" devices="tripinfo_left_15" vType="typeWE" speedFactor="1.00" vaporized=""/>
    <tripinfo id="up_27" depart="85.00" departLane="53o_0" departPos="5.10" departSpeed="0.00" departDelay="1.00" arrival="201.00" arrivalLane="54i_0" arrivalPos="10.00" arrivalSpeed="11.56" duration="116.00" routeLength="1015.10" waitSteps="13" timeLoss="39.94" rerouteNo="0" devices="tripinfo_up_27" vType="typeNS" speedFactor="1.00" vaporized=""/>
    <tripinfo id="down_28" depart="90.00" departLane="54o_0" departPos="5.10" departSpeed="0.00" departDelay="0.00" arrival="201.00" arrivalLane="53i_0" arrivalPos="10.00" arrivalSpeed="11.38" duration="111.00" routeLength="1015.10" waitSteps="10" timeLoss="34.68" rerouteNo="0" devices="tripinfo_down_28" vType="typeNS" speedFactor="1.00" vaporized=""/>
    <tripinfo id="up_31" depart="94.00" departLane="53o_0" departPos="5.10" departSpeed="0.00" departDelay="0.00" arrival="203.00" arrivalLane="54i_0" arrivalPos="10.00" arrivalSpeed="10.63" duration="109.00" routeLength="1015.10" waitSteps="6" timeLoss="32.95" rerouteNo="0" devices="tripinfo_up_31" vType="typeNS" speedFactor="1.00" vaporized=""/>
    <tripinfo id="down_33" depart="96.00" departLane="54o_0" departPos="5.10" departSpeed="0.00" departDelay="0.00" arrival="204.00" arrivalLane="53i_0" arrivalPos="10.00" arrivalSpeed="11.64" duration="108.00" routeLength="1015.10" waitSteps="6" timeLoss="31.38" rerouteNo="0" devices="tripinfo_down_33" vType="typeNS" speedFactor="1.00" vaporized=""/>
    <tripinfo id="up_35" depart="99.00" departLane="53o_0" departPos="5.10" departSpeed="0.00" departDelay="2.00" arrival="206.00" arrivalLane="54i_0" arrivalPos="10.00" arrivalSpeed="11.69" duration="107.00" routeLength="1015.10" waitSteps="3" timeLoss="30.58" rerouteNo="0" devices="tripinfo_up_35" vType="typeNS" speedFactor="1.00" vaporized=""/>
    <tripinfo id="down_34" depart="101.00" departLane="54o_0" departPos="5.10" departSpeed="0.00" departDelay="4.00" arrival="206.00" arrivalLane="53i_0" arrivalPos="10.00" arrivalSpeed="7.89" duration="105.00" routeLength="1015.10" waitSteps="1" timeLoss="29.07" rerouteNo="0" devices="tripinfo_down_34" vType="typeNS" speedFactor="1.00" vaporized=""/>
    <tripinfo id="left_16" depart="46.00" departLane="52o_0" departPos="5.10" departSpeed="0.00" departDelay="0.00" arrival="218.00" arrivalLane="51i_0" arrivalPos="10.00" arrivalSpeed="11.47" duration="172.00" routeLength="1015.10" waitSteps="55" timeLoss="96.10" rerouteNo="0" devices="tripinfo_left_16" vType="typeWE" speedFactor="1.00" vaporized=""/>
    <tripinfo id="right_38" depart="103.00" departLane="51o_0" departPos="5.10" departSpeed="0.00" departDelay="0.00" arrival="218.00" arrivalLane="52i_0" arrivalPos="10.00" arrivalSpeed="11.66" duration="115.00" routeLength="1015.10" waitSteps="13" timeLoss="39.00" rerouteNo="0" devices="tripinfo_right_38" vType="typeWE" speedFactor="1.00" vaporized=""/>
    <tripinfo id="left_23" depart="71.00" departLane="52o_0" departPos="5.10" departSpeed="0.00" departDelay="0.00" arrival="220.00" arrivalLane="51i_0" arrivalPos="10.00" arrivalSpeed="11.10" duration="149.00" routeLength="1015.10" waitSteps="34" timeLoss="73.05" rerouteNo="0" devices="tripinfo_left_23" vType="typeWE" speedFactor="1.00" vaporized=""/>
    <tripinfo id="right_41" depart="111.00" departLane="51o_0" departPos="5.10" departSpeed="0.00" departDelay="0.00" arrival="220.00" arrivalLane="52i_0" arrivalPos="10.00" arrivalSpeed="11.19" duration="109.00" routeLength="1015.10" waitSteps="5" timeLoss="32.94" rerouteNo="0" devices="tripinfo_right_41" vType="typeWE" speedFactor="1.00" vaporized=""/>
    <tripinfo id="right_46" depart="117.00" departLane="51o_0" departPos="5.10" departSpeed="0.00" departDelay="0.00" arrival="239.00" arrivalLane="52i_0" arrivalPos="10.00" arrivalSpeed="11.54" duration="122.00" routeLength="1015.10" waitSteps="13" timeLoss="46.19" rerouteNo="0" devices="tripinfo_right_46" vType="typeWE" speedFactor="1.00" vaporized=""/>
    <tripinfo id="left_30" depart="94.00" departLane="52o_0" departPos="5.10" departSpeed="0.00" departDelay="2.00" arrival="240.00" arrivalLane="51i_0" arrivalPos="10.00" arrivalSpeed="11.32" duration="146.00" routeLength="1015.10" waitSteps="27" timeLoss="69.56" rerouteNo="0" devices="tripinfo_left_30" vType="typeWE" speedFactor="1.00" vaporized=""/>
    <tripinfo id="right_51" depart="130.00" departLane="51o_0" departPos="5.10" departSpeed="0.00" departDelay="0.00" arrival="241.00" arrivalLane="52i_0" arrivalPos="10.00" arrivalSpeed="11.59" duration="111.00" routeLength="1015.10" waitSteps="7" timeLoss="34.99" rerouteNo="0" devices="tripinfo_right_51" vType="typeWE" speedFactor="1.00" vaporized=""/>
    <tripinfo id="left_32" depart="99.00" departLane="52o_0" departPos="5.10" departSpeed="0.00" departDelay="3.00" arrival="242.00" arrivalLane="51i_0" arrivalPos="10.00" arrivalSpeed="9.00" duration="143.00" routeLength="1015.10" waitSteps="25" timeLoss="66.88" rerouteNo="0" devices="tripinfo_left_32" vType="typeWE" speedFactor="1.00" vaporized=""/>
    <tripinfo id="left_43" depart="112.00" departLane="52o_0" departPos="5.10" departSpeed="0.00" departDelay="0.00" arrival="244.00" arrivalLane="51i_0" arrivalPos="10.00" arrivalSpeed="10.83" duration="132.00" routeLength="1015.10" waitSteps="20" timeLoss="55.81" rerouteNo="0" devices="tripinfo_left_43" vType="typeWE" speedFactor="1.00" vaporized=""/>
    <tripinfo id="right_56" depart="140.00" departLane="51o_0" departPos="5.10" departSpeed="0.00" departDelay="0.00" arrival="244.00" arrivalLane="52i_0" arrivalPos="10.00" arrivalSpeed="11.66" duration="104.00" routeLength="1015.10" waitSteps="0" timeLoss="27.64" rerouteNo="0" devices="tripinfo_right_56" vType="typeWE" speedFactor="1.00" vaporized=""/>
    <tripinfo id="down_36" depart="106.00" departLane="54o_0" departPos="5.10" departSpeed="0.00" departDelay="5.00" arrival="257.00" arrivalLane="53i_0" arrivalPos="10.00" arrivalSpeed="11.18" duration="151.00" routeLength="1015.10" waitSteps="42" timeLoss="75.19" rerouteNo="0" devices="tripinfo_down_36" vType="typeNS" speedFactor="1.00" vaporized=""/>
    <tripinfo id="up_37" depart="104.00" departLane="53o_0" departPos="5.10" departSpeed="0.00" departDelay="3.00" arrival="258.00" arrivalLane="54i_0" arrivalPos="10.00" arrivalSpeed="11.61" duration="154.00" routeLength="1015.10" waitSteps="41" timeLoss="77.50" rerouteNo="0" devices="tripinfo_up_37" vType="typeNS" speedFactor="1.00" vaporized=""/>
    <tripinfo id="down_39" depart="111.00" departLane="54o_0" departPos="5.10" departSpeed="0.00" departDelay="5.00" arrival="259.00" arrivalLane="53i_0" arrivalPos="10.00" arrivalSpeed="11.04" duration="148.00" routeLength="1015.10" waitSteps="41" timeLoss="71.90" rerouteNo="0" devices="tripinfo_down_39" vType="typeNS" speedFactor="1.00" vaporized=""/>
    <tripinfo id="up_40" depart="109.00" departLane="53o_0" departPos="5.10" departSpeed="0.00" departDelay="3.00" arrival="260.00" arrivalLane="54i_0" arrivalPos="10.00" arrivalSpeed="10.92" duration="151.00" routeLength="1015.10" waitSteps="41" timeLoss="74.88" rerouteNo="0" devices="tripinfo_up_40" vType="typeNS" speedFactor="1.00" vaporized=""/>
    <tripinfo id="down_42" depart="117.00" departLane="54o_0" departPos="5.10" departSpeed="0.00" departDelay="6.00" arrival="261.00" arrivalLane="53i_0" arrivalPos="10.00" arrivalSpeed="11.15" duration="144.00" routeLength="1015.10" waitSteps="38" timeLoss="68.07" rerouteNo="0" devices="tripinfo_down_42" vType="typeNS" speedFactor="1.00" vaporized=""/>
    <tripinfo id="up_48" depart="120.00" departLane="53o_0" departPos="5.10" departSpeed="0.00" departDelay="0.00" arrival="262.00" arrivalLane="54i_0" arrivalPos="10.00" arrivalSpeed="11.54" duration="142.00" routeLength="1015.10" waitSteps="35" timeLoss="65.98" rerouteNo="0" devices="tripinfo_up_48" vType="typeNS" speedFactor="1.00" vaporized=""/>
    <tripinfo id="down_47" depart="122.00" departLane="54o_0" departPos="5.10" departSpeed="0.00" departDelay="3.00" arrival="263.00" arrivalLane="53i_0" arrivalPos="10.00" arrivalSpeed="11.51" duration="141.00" routeLength="1015.10" waitSteps="36" timeLoss="65.06" rerouteNo="0" devices="tripinfo_down_47" vType="typeNS" speedFactor="1.00" vaporized=""/>
    <tripinfo id="up_54" depart="136.00" departLane="53o_0" departPos="5.10" departSpeed="0.00" departDelay="0.00" arrival="264.00" arrivalLane="54i_0" arrivalPos="10.00" arrivalSpeed="10.98" duration="128.00" routeLength="1015.10" waitSteps="22" timeLoss="51.95" rerouteNo="0" devices="tripinfo_up_54" vType="typeNS" speedFactor="1.00" vaporized=""/>
    <tripinfo id="left_44" depart="117.00" departLane="52o_0" departPos="5.10" departSpeed="0.00" departDelay="2.00" arrival="276.00" arrivalLane="51i_0" arrivalPos="10.00" arrivalSpeed="11.40" duration="159.00" routeLength="1015.10" waitSteps="36" timeLoss="82.31" rerouteNo="0" devices="tripinfo_left_44" vType="typeWE" speedFactor="1.00" vaporized=""/>
    <tripinfo id="right_57" depart="145.00" departLane="51o_0" departPos="5.10" departSpeed="0.00" departDelay="3.00" arrival="276.00" arrivalLane="52i_0" arrivalPos="10.00" arrivalSpeed="11.52" duration="131.00" routeLength="1015.10" waitSteps="25" timeLoss="55.13" rerouteNo="0" devices="tripinfo_right_57" vType="typeWE" speedFactor="1.00" vaporized=""/>
    <tripinfo id="down_52" depart="131.00" departLane="54o_0" departPos="5.10" departSpeed="0.00" departDelay="0.00" arrival="287.00" arrivalLane="53i_0" arrivalPos="10.00" arrivalSpeed="11.51" duration="156.00" routeLength="1015.10" waitSteps="39" timeLoss="80.04" rerouteNo="0" devices="tripinfo_down_52" vType="typeNS" speedFactor="1.00" vaporized=""/>
    <tripinfo id="up_62" depart="157.00" departLane="53o_0" departPos="5.10" departSpeed="0.00" departDelay="0.00" arrival="287.00" arrivalLane="54i_0" arrivalPos="10.00" arrivalSpeed="11.70" duration="130.00" routeLength="1015.10" waitSteps="19" timeLoss="53.25" rerouteNo="0" devices="tripinfo_up_62" vType="typeNS" speedFactor="1.00" vaporized=""/>
    <tripinfo id="down_55" depart="138.00" departLane="54o_0" departPos="5.10" departSpeed="0.00" departDelay="0.00" arrival="289.00" arrivalLane="53i_0" arrivalPos="10.00" arrivalSpeed="11.53" duration="151.00" routeLength="1015.10" waitSteps="35" timeLoss="75.03" rerouteNo="0" devices="tripinfo_down_55" vType="typeNS" speedFactor="1.00" vaporized=""/>
    <tripinfo id="up_64" depart="162.00" departLane="53o_0" departPos="5.10" departSpeed="0.00" departDelay="4.00" arrival="290.00" arrivalLane="54i_0" arrivalPos="10.00" arrivalSpeed="11.76" duration="128.00" routeLength="1015.10" waitSteps="14" timeLoss="51.37" rerouteNo="0" devices="tripinfo_up_64" vType="typeNS" speedFactor="1.00" vaporized=""/>
    <tripinfo id="left_45" depart="123.00" departLane="52o_0" departPos="5.10" departSpeed="0.00" departDelay="7.00" arrival="302.00" arrivalLane="51i_0" arrivalPos="10.00" arrivalSpeed="11.77" duration="179.00" routeLength="1015.10" waitSteps="54" timeLoss="102.49" rerouteNo="0" devices="tripinfo_left_45" vType="typeWE" speedFactor="1.00" vaporized=""/>
    <tripinfo id="right_58" depart="150.00" departLane="51o_0" departPos="5.10" departSpeed="0.00" departDelay="7.00" arrival="302.00" arrivalLane="52i_0" arrivalPos="10.00" arrivalSpeed="11.70" duration="152.00" routeLength="1015.10" waitSteps="42" timeLoss="75.96" rerouteNo="0" devices="tripinfo_right_58" vType="typeWE" speedFactor="1.00" vaporized=""/>
    <tripinfo id="up_65" depart="167.00" departLane="53o_0" departPos="5.10" departSpeed="0.00" departDelay="8.00" arrival="313.00" arrivalLane="54i_0" arrivalPos="10.00" arrivalSpeed="11.59" duration="146.00" routeLength="1015.10" waitSteps="29" timeLoss="69.60" rerouteNo="0" devices="tripinfo_up_65" vType="typeNS" speedFactor="1.00" vaporized=""/>
    <tripinfo id="down_66" depart="162.00" departLane="54o_0" departPos="5.10" departSpeed="0.00" departDelay="0.00" arrival="314.00" arrivalLane="53i_0" arrivalPos="10.00" arrivalSpeed="11.43" duration="152.00" routeLength="1015.10" waitSteps="30" timeLoss="75.63" rerouteNo="0" devices="tripinfo_down_66" vType="typeNS" speedFactor="1.00" vaporized=""/>
    <tripinfo id="up_67" depart="172.00" departLane="53o_0" departPos="5.10" departSpeed="0.00" departDelay="10.00" arrival="332.00" arrivalLane="54i_0" arrivalPos="10.00" arrivalSpeed="11.53" duration="160.00" routeLength="1015.10" waitSteps="41" timeLoss="84.16" rerouteNo="0" devices="tripinfo_up_67" vType="typeNS" speedFactor="1.00" vaporized=""/>
    <tripinfo id="down_68" depart="167.00" departLane="54o_0" departPos="5.10" departSpeed="0.00" departDelay="3.00" arrival="333.00" arrivalLane="53i_0" arrivalPos="10.00" arrivalSpeed="11.50" duration="166.00" routeLength="1015.10" waitSteps="38" timeLoss="89.70" rerouteNo="0" devices="tripinfo_down_68" vType="typeNS" speedFactor="1.00" vaporized=""/>
    <tripinfo id="up_69" depart="177.00" departLane="53o_0" departPos="5.10" departSpeed="0.00" departDelay="13.00" arrival="334.00" arrivalLane="54i_0" arrivalPos="10.00" arrivalSpeed="11.34" duration="157.00" routeLength="1015.10" waitSteps="37" timeLoss="81.10" rerouteNo="0" devices="tripinfo_up_69" vType="typeNS" speedFactor="1.00" vaporized=""/>
    <tripinfo id="right_60" depart="155.00" departLane="51o_0" departPos="5.10" departSpeed="0.00" departDelay="5.00" arrival="344.00" arrivalLane="52i_0" arrivalPos="10.00" arrivalSpeed="11.56" duration="189.00" routeLength="1015.10" waitSteps="74" timeLoss="112.33" rerouteNo="0" devices="tripinfo_right_60" vType="typeWE" speedFactor="1.00" vaporized=""/>
    <tripinfo id="left_49" depart="128.00" departLane="52o_0" departPos="5.10" departSpeed="0.00" departDelay="1.00" arrival="345.00" arrivalLane="51i_0" arrivalPos="10.00" arrivalSpeed="11.63" duration="217.00" routeLength="1015.10" waitSteps="87" timeLoss="140.32" rerouteNo="0" devices="tripinfo_left_49" vType="typeWE" speedFactor="1.00" vaporized=""/>
    <tripinfo id="down_70" depart="172.00" departLane="54o_0" departPos="5.10" departSpeed="0.00" departDelay="7.00" arrival="355.00" arrivalLane="53i_0" arrivalPos="10.00" arrivalSpeed="11.77" duration="183.00" routeLength="1015.10" waitSteps="52" timeLoss="107.00" rerouteNo="0" devices="tripinfo_down_70" vType="typeNS" speedFactor="1.00" vaporized=""/>
    <tripinfo id="up_71" depart="182.00" departLane="53o_0" departPos="5.10" departSpeed="0.00" departDelay="16.00" arrival="355.00" arrivalLane="54i_0" arrivalPos="10.00" arrivalSpeed="11.27" duration="173.00" routeLength="1015.10" waitSteps="49" timeLoss="96.41" rerouteNo="0" devices="tripinfo_up_71" vType="typeNS" speedFactor="1.00" vaporized=""/>
    <tripinfo id="down_76" depart="177.00" departLane="54o_0" departPos="5.10" departSpeed="0.00" departDelay="1.00" arrival="357.00" arrivalLane="53i_0" arrivalPos="10.00" arrivalSpeed="11.13" duration="180.00" routeLength="1015.10" waitSteps="49" timeLoss="104.00" rerouteNo="0" devices="tripinfo_down_76" vType="typeNS" speedFactor="1.00" vaporized=""/>
    <tripinfo id="up_77" depart="187.00" departLane="53o_0" departPos="5.10" departSpeed="0.00" departDelay="9.00" arrival="358.00" arrivalLane="54i_0" arrivalPos="10.00" arrivalSpeed="11.72" duration="171.00" routeLength="1015.10" waitSteps="45" timeLoss="94.27" rerouteNo="0" devices="tripinfo_up_77" vType="typeNS" speedFactor="1.00" vaporized=""/>
    <tripinfo id="up_80" depart="192.00" departLane="53o_0" departPos="5.10" departSpeed="0.00" departDelay="9.00" arrival="360.00" arrivalLane="54i_0" arrivalPos="10.00" arrivalSpeed="7.90" duration="168.00" routeLength="1015.10" waitSteps="37" timeLoss="91.87" rerouteNo="0" devices="tripinfo_up_80" vType="typeNS" speedFactor="1.00" vaporized=""/>
    <tripinfo id="left_50" depart="133.00" departLane="52o_0" departPos="5.10" departSpeed="0.00" departDelay="5.00" arrival="370.00" arrivalLane="51i_0" arrivalPos="10.00" arrivalSpeed="11.57" duration="237.00" routeLength="1015.10" waitSteps="102" timeLoss="160.88" rerouteNo="0" devices="tripinfo_left_50" vType="typeWE" speedFactor="1.00" vaporized=""/>
    <tripinfo id="right_73" depart="172.00" departLane="51o_0" departPos="5.10" departSpeed="0.00" departDelay="0.00" arrival="370.00" arrivalLane="52i_0" arrivalPos="10.00" arrivalSpeed="11.74" duration="198.00" routeLength="1015.10" waitSteps="76" timeLoss="122.06" rerouteNo="0" devices="tripinfo_right_73" vType="typeWE" speedFactor="1.00" vaporized=""/>
    <tripinfo id="right_74" depart="178.00" departLane="51o_0" departPos="5.10" departSpeed="0.00" departDelay="3.00" arrival="372.00" arrivalLane="52i_0" arrivalPos="10.00" arrivalSpeed="10.98" duration="194.00" routeLength="1015.10" waitSteps="68" timeLoss="117.84" rerouteNo="0" devices="tripinfo_right_74" vType="typeWE" speedFactor="1.00" vaporized=""/>
    <tripinfo id="left_53" depart="138.00" departLane="52o_0" departPos="5.10" departSpeed="0.00" departDelay="6.00" arrival="373.00" arrivalLane="51i_0" arrivalPos="10.00" arrivalSpeed="11.52" duration="235.00" routeLength="1015.10" waitSteps="98" timeLoss="158.34" rerouteNo="0" devices="tripinfo_left_53" vType="typeWE" speedFactor="1.00" vaporized=""/>
    <tripinfo id="right_75" depart="183.00" departLane="51o_0" departPos="5.10" departSpeed="0.00" departDelay="7.00" arrival="374.00" arrivalLane="52i_0" arrivalPos="10.00" arrivalSpeed="11.47" duration="191.00" routeLength="1015.10" waitSteps="63" timeLoss="114.87" rerouteNo="0" devices="tripinfo_right_75" vType="typeWE" speedFactor="1.00" vaporized=""/>
    <tripinfo id="left_59" depart="146.00" departLane="52o_0" departPos="5.10" departSpeed="0.00" departDelay="0.00" arrival="375.00" arrivalLane="51i_0" arrivalPos="10.00" arrivalSpeed="10.85" duration="229.00" routeLength="1015.10" waitSteps="91" timeLoss="152.81" rerouteNo="0" devices="tripinfo_left_59" vType="typeWE" speedFactor="1.00" vaporized=""/>
    <tripinfo id="down_79" depart="182.00" departLane="54o_0" departPos="5.10" departSpeed="0.00" departDelay="1.00" arrival="387.00" arrivalLane="53i_0" arrivalPos="10.00" arrivalSpeed="11.60" duration="205.00" routeLength="1015.10" waitSteps="70" timeLoss="129.02" rerouteNo="0" devices="tripinfo_down_79" vType="typeNS" speedFactor="1.00" vaporized=""/>
    <tripinfo id="up_82" depart="197.00" departLane="53o_0" departPos="5.10" departSpeed="0.00" departDelay="8.00" arrival="388.00" arrivalLane="54i_0" arrivalPos="10.00" arrivalSpeed="11.52" duration="191.00" routeLength="1015.10" waitSteps="52" timeLoss="114.66" rerouteNo="0" devices="tripinfo_up_82" vType="typeNS" speedFactor="1.00" vaporized=""/>
    <tripinfo id="down_81" depart="189.00" departLane="54o_0" departPos="5.10" departSpeed="0.00" departDelay="0.00" arrival="389.00" arrivalLane="53i_0" arrivalPos="10.00" arrivalSpeed="11.09" duration="200.00" routeLength="1015.10" waitSteps="65" timeLoss="123.85" rerouteNo="0" devices="tripinfo_down_81" vType="typeNS" speedFactor="1.00" vaporized=""/>
    <tripinfo id="up_84" depart="204.00" departLane="53o_0" departPos="5.10" departSpeed="0.00" departDelay="12.00" arrival="390.00" arrivalLane="54i_0" arrivalPos="10.00" arrivalSpeed="11.09" duration="186.00" routeLength="1015.10" waitSteps="54" timeLoss="109.95" rerouteNo="0" devices="tripinfo_up_84" vType="typeNS" speedFactor="1.00" vaporized=""/>
    <tripinfo id="down_83" depart="194.00" departLane="54o_0" departPos="5.10" departSpeed="0.00" departDelay="4.00" arrival="392.00" arrivalLane="53i_0" arrivalPos="10.00" arrivalSpeed="11.78" duration="198.00" routeLength="1015.10" waitSteps="61" timeLoss="121.58" rerouteNo="0" devices="tripinfo_down_83" vType="typeNS" speedFactor="1.00" vaporized=""/>