<?xml version="1.0" encoding="UTF-8"?>

<!-- generated on Thu Sep  7 14:16:00 2017 by SUMO gui Version 0.30.0
<?xml version="1.0" encoding="UTF-8"?>

<configuration xmlns:xsi="http://www.w3.org/2001/XMLSchema-instance" xsi:noNamespaceSchemaLocation="http://sumo.dlr.de/xsd/sumoConfiguration.xsd">

    <input>
        <net-file value="data/cross.net.xml"/>
        <route-files value="data/cross.rou.xml"/>
        <additional-files value="data/cross1.det.xml"/>
    </input>

    <output>
        <tripinfo-output value="tripinfo.xml"/>
    </output>

    <time>
        <begin value="0"/>
    </time>

    <report>
        <verbose value="true"/>
        <no-step-log value="true"/>
    </report>

    <traci_server>
        <remote-port value="52622"/>
    </traci_server>

    <gui_only>
        <gui-settings-file value="data/gui.settings.xml"/>
    </gui_only>

</configuration>
-->

<tripinfos xmlns:xsi="http://www.w3.org/2001/XMLSchema-instance" xsi:noNamespaceSchemaLocation="http://sumo.dlr.de/xsd/tripinfo_file.xsd">
    <tripinfo id="left_0" depart="6.00" departLane="52o_0" departPos="5.10" departSpeed="0.00" departDelay="0.00" arrival="139.00" arrivalLane="51i_0" arrivalPos="10.00" arrivalSpeed="11.41" duration="133.00" routeLength="1015.10" waitSteps="30" timeLoss="56.59" rerouteNo="0" devices="tripinfo_left_0" vType="typeWE" speedFactor="1.00" vaporized=""/>
    <tripinfo id="right_1" depart="8.00" departLane="51o_0" departPos="5.10" departSpeed="0.00" departDelay="0.00" arrival="139.00" arrivalLane="52i_0" arrivalPos="10.00" arrivalSpeed="11.36" duration="131.00" routeLength="1015.10" waitSteps="27" timeLoss="54.61" rerouteNo="0" devices="tripinfo_right_1" vType="typeWE" speedFactor="1.00" vaporized=""/>
    <tripinfo id="left_3" depart="28.00" departLane="52o_0" departPos="5.10" departSpeed="0.00" departDelay="0.00" arrival="141.00" arrivalLane="51i_0" arrivalPos="10.00" arrivalSpeed="11.41" duration="113.00" routeLength="1015.10" waitSteps="9" timeLoss="37.10" rerouteNo="0" devices="tripinfo_left_3" vType="typeWE" speedFactor="1.00" vaporized=""/>
    <tripinfo id="right_2" depart="25.00" departLane="51o_0" departPos="5.10" departSpeed="0.00" departDelay="0.00" arrival="141.00" arrivalLane="52i_0" arrivalPos="10.00" arrivalSpeed="9.21" duration="116.00" routeLength="1015.10" waitSteps="13" timeLoss="39.92" rerouteNo="0" devices="tripinfo_right_2" vType="typeWE" speedFactor="1.00" vaporized=""/>
    <tripinfo id="right_4" depart="30.00" departLane="51o_0" departPos="5.10" departSpeed="0.00" departDelay="1.00" arrival="163.00" arrivalLane="52i_0" arrivalPos="10.00" arrivalSpeed="10.72" duration="133.00" routeLength="1015.10" waitSteps="24" timeLoss="56.90" rerouteNo="0" devices="tripinfo_right_4" vType="typeWE" speedFactor="1.00" vaporized=""/>
    <tripinfo id="left_5" depart="33.00" departLane="52o_0" departPos="5.10" departSpeed="0.00" departDelay="0.00" arrival="163.00" arrivalLane="51i_0" arrivalPos="10.00" arrivalSpeed="11.73" duration="130.00" routeLength="1015.10" waitSteps="19" timeLoss="54.03" rerouteNo="0" devices="tripinfo_left_5" vType="typeWE" speedFactor="1.00" vaporized=""/>
    <tripinfo id="right_12" depart="85.00" departLane="51o_0" departPos="5.10" departSpeed="0.00" departDelay="0.00" arrival="178.00" arrivalLane="52i_0" arrivalPos="10.00" arrivalSpeed="11.83" duration="93.00" routeLength="1015.10" waitSteps="0" timeLoss="16.94" rerouteNo="0" devices="tripinfo_right_12" vType="typeWE" speedFactor="1.00" vaporized=""/>
    <tripinfo id="left_6" depart="43.00" departLane="52o_0" departPos="5.10" departSpeed="0.00" departDelay="0.00" arrival="185.00" arrivalLane="51i_0" arrivalPos="10.00" arrivalSpeed="11.48" duration="142.00" routeLength="1015.10" waitSteps="29" timeLoss="65.61" rerouteNo="0" devices="tripinfo_left_6" vType="typeWE" speedFactor="1.00" vaporized=""/>
    <tripinfo id="right_14" depart="113.00" departLane="51o_0" departPos="5.10" departSpeed="0.00" departDelay="0.00" arrival="207.00" arrivalLane="52i_0" arrivalPos="10.00" arrivalSpeed="11.48" duration="94.00" routeLength="1015.10" waitSteps="0" timeLoss="17.50" rerouteNo="0" devices="tripinfo_right_14" vType="typeWE" speedFactor="1.00" vaporized=""/>
    <tripinfo id="left_7" depart="54.00" departLane="52o_0" departPos="5.10" departSpeed="0.00" departDelay="0.00" arrival="215.00" arrivalLane="51i_0" arrivalPos="10.00" arrivalSpeed="11.31" duration="161.00" routeLength="1015.10" waitSteps="48" timeLoss="84.40" rerouteNo="0" devices="tripinfo_left_7" vType="typeWE" speedFactor="1.00" vaporized=""/>
    <tripinfo id="left_8" depart="59.00" departLane="52o_0" departPos="5.10" departSpeed="0.00" departDelay="4.00" arrival="235.00" arrivalLane="51i_0" arrivalPos="10.00" arrivalSpeed="11.66" duration="176.00" routeLength="1015.10" waitSteps="57" timeLoss="99.73" rerouteNo="0" devices="tripinfo_left_8" vType="typeWE" speedFactor="1.00" vaporized=""/>
    <tripinfo id="right_16" depart="125.00" departLane="51o_0" departPos="5.10" departSpeed="0.00" departDelay="0.00" arrival="235.00" arrivalLane="52i_0" arrivalPos="10.00" arrivalSpeed="11.45" duration="110.00" routeLength="1015.10" waitSteps="8" timeLoss="33.37" rerouteNo="0" devices="tripinfo_right_16" vType="typeWE" speedFactor="1.00" vaporized=""/>
    <tripinfo id="left_9" depart="70.00" departLane="52o_0" departPos="5.10" departSpeed="0.00" departDelay="0.00" arrival="268.00" arrivalLane="51i_0" arrivalPos="10.00" arrivalSpeed="11.32" duration="198.00" routeLength="1015.10" waitSteps="73" timeLoss="122.06" rerouteNo="0" devices="tripinfo_left_9" vType="typeWE" speedFactor="1.00" vaporized=""/>
    <tripinfo id="right_17" depart="131.00" departLane="51o_0" departPos="5.10" departSpeed="0.00" departDelay="0.00" arrival="268.00" arrivalLane="52i_0" arrivalPos="10.00" arrivalSpeed="11.30" duration="137.00" routeLength="1015.10" waitSteps="29" timeLoss="61.08" rerouteNo="0" devices="tripinfo_right_17" vType="typeWE" speedFactor="1.00" vaporized=""/>
    <tripinfo id="right_19" depart="142.00" departLane="51o_0" departPos="5.10" departSpeed="0.00" departDelay="0.00" arrival="298.00" arrivalLane="52i_0" arrivalPos="10.00" arrivalSpeed="11.27" duration="156.00" routeLength="1015.10" waitSteps="46" timeLoss="79.44" rerouteNo="0" devices="tripinfo_right_19" vType="typeWE" speedFactor="1.00" vaporized=""/>
    <tripinfo id="left_10" depart="78.00" departLane="52o_0" departPos="5.10" departSpeed="0.00" departDelay="0.00" arrival="299.00" arrivalLane="51i_0" arrivalPos="10.00" arrivalSpeed="11.27" duration="221.00" routeLength="1015.10" waitSteps="91" timeLoss="144.68" rerouteNo="0" devices="tripinfo_left_10" vType="typeWE" speedFactor="1.00" vaporized=""/>
    <tripinfo id="right_23" depart="169.00" departLane="51o_0" departPos="5.10" departSpeed="0.00" departDelay="0.00" arrival="300.00" arrivalLane="52i_0" arrivalPos="10.00" arrivalSpeed="8.11" duration="131.00" routeLength="1015.10" waitSteps="22" timeLoss="54.88" rerouteNo="0" devices="tripinfo_right_23" vType="typeWE" speedFactor="1.00" vaporized=""/>
    <tripinfo id="left_11" depart="83.00" departLane="52o_0" departPos="5.10" departSpeed="0.00" departDelay="1.00" arrival="301.00" arrivalLane="51i_0" arrivalPos="10.00" arrivalSpeed="11.12" duration="218.00" routeLength="1015.10" waitSteps="84" timeLoss="141.89" rerouteNo="0" devices="tripinfo_left_11" vType="typeWE" speedFactor="1.00" vaporized=""/>
    <tripinfo id="left_13" depart="111.00" departLane="52o_0" departPos="5.10" departSpeed="0.00" departDelay="0.00" arrival="321.00" arrivalLane="51i_0" arrivalPos="10.00" arrivalSpeed="11.74" duration="210.00" routeLength="1015.10" waitSteps="73" timeLoss="133.26" rerouteNo="0" devices="tripinfo_left_13" vType="typeWE" speedFactor="1.00" vaporized=""/>
    <tripinfo id="right_26" depart="179.00" departLane="51o_0" departPos="5.10" departSpeed="0.00" departDelay="0.00" arrival="321.00" arrivalLane="52i_0" arrivalPos="10.00" arrivalSpeed="11.45" duration="142.00" routeLength="1015.10" waitSteps="31" timeLoss="65.33" rerouteNo="0" devices="tripinfo_right_26" vType="typeWE" speedFactor="1.00" vaporized=""/>
    <tripinfo id="left_15" depart="119.00" departLane="52o_0" departPos="5.10" departSpeed="0.00" departDelay="0.00" arrival="337.00" arrivalLane="51i_0" arrivalPos="10.00" arrivalSpeed="11.42" duration="218.00" routeLength="1015.10" waitSteps="76" timeLoss="141.64" rerouteNo="0" devices="tripinfo_left_15" vType="typeWE" speedFactor="1.00" vaporized=""/>
    <tripinfo id="right_27" depart="198.00" departLane="51o_0" departPos="5.10" departSpeed="0.00" departDelay="0.00" arrival="337.00" arrivalLane="52i_0" arrivalPos="10.00" arrivalSpeed="11.55" duration="139.00" routeLength="1015.10" waitSteps="24" timeLoss="62.77" rerouteNo="0" devices="tripinfo_right_27" vType="typeWE" speedFactor="1.00" vaporized=""/>
    <tripinfo id="left_18" depart="139.00" departLane="52o_0" departPos="5.10" departSpeed="0.00" departDelay="0.00" arrival="370.00" arrivalLane="51i_0" arrivalPos="10.00" arrivalSpeed="11.25" duration="231.00" routeLength="1015.10" waitSteps="86" timeLoss="154.42" rerouteNo="0" devices="tripinfo_left_18" vType="typeWE" speedFactor="1.00" vaporized=""/>
    <tripinfo id="right_28" depart="210.00" departLane="51o_0" departPos="5.10" departSpeed="0.00" departDelay="0.00" arrival="370.00" arrivalLane="52i_0" arrivalPos="10.00" arrivalSpeed="11.68" duration="160.00" routeLength="1015.10" waitSteps="44" timeLoss="83.73" rerouteNo="0" devices="tripinfo_right_28" vType="typeWE" speedFactor="1.00" vaporized=""/>
    <tripinfo id="left_20" depart="144.00" departLane="52o_0" departPos="5.10" departSpeed="0.00" departDelay="0.00" arrival="383.00" arrivalLane="51i_0" arrivalPos="10.00" arrivalSpeed="11.69" duration="239.00" routeLength="1015.10" waitSteps="90" timeLoss="163.07" rerouteNo="0" devices="tripinfo_left_20" vType="typeWE" speedFactor="1.00" vaporized=""/>
    <tripinfo id="right_29" depart="215.00" departLane="51o_0" departPos="5.10" departSpeed="0.00" departDelay="0.00" arrival="383.00" arrivalLane="52i_0" arrivalPos="10.00" arrivalSpeed="11.24" duration="168.00" routeLength="1015.10" waitSteps="47" timeLoss="91.93" rerouteNo="0" devices="tripinfo_right_29" vType="typeWE" speedFactor="1.00" vaporized=""/>
    <tripinfo id="left_21" depart="158.00" departLane="52o_0" departPos="5.10" departSpeed="0.00" departDelay="0.00" arrival="425.00" arrivalLane="51i_0" arrivalPos="10.00" arrivalSpeed="11.75" duration="267.00" routeLength="1015.10" waitSteps="119" timeLoss="190.56" rerouteNo="0" devices="tripinfo_left_21" vType="typeWE" speedFactor="1.00" vaporized=""/>
    <tripinfo id="right_34" depart="280.00" departLane="51o_0" departPos="5.10" departSpeed="0.00" departDelay="0.00" arrival="426.00" arrivalLane="52i_0" arrivalPos="10.00" arrivalSpeed="11.31" duration="146.00" routeLength="1015.10" waitSteps="35" timeLoss="69.37" rerouteNo="0" devices="tripinfo_right_34" vType="typeWE" speedFactor="1.00" vaporized=""/>
    <tripinfo id="left_22" depart="163.00" departLane="52o_0" departPos="5.10" departSpeed="0.00" departDelay="4.00" arrival="440.00" arrivalLane="51i_0" arrivalPos="10.00" arrivalSpeed="11.76" duration="277.00" routeLength="1015.10" waitSteps="120" timeLoss="200.45" rerouteNo="0" devices="tripinfo_left_22" vType="typeWE" speedFactor="1.00" vaporized=""/>
    <tripinfo id="right_35" depart="296.00" departLane="51o_0" departPos="5.10" departSpeed="0.00" departDelay="0.00" arrival="440.00" arrivalLane="52i_0" arrivalPos="10.00" arrivalSpeed="11.17" duration="144.00" routeLength="1015.10" waitSteps="35" timeLoss="67.94" rerouteNo="0" devices="tripinfo_right_35" vType="typeWE" speedFactor="1.00" vaporized=""/>
    <tripinfo id="right_36" depart="303.00" departLane="51o_0" departPos="5.10" departSpeed="0.00" departDelay="0.00" arrival="456.00" arrivalLane="52i_0" arrivalPos="10.00" arrivalSpeed="11.72" duration="153.00" routeLength="1015.10" waitSteps="38" timeLoss="76.67" rerouteNo="0" devices="tripinfo_right_36" vType="typeWE" speedFactor="1.00" vaporized=""/>
    <tripinfo id="left_24" depart="170.00" departLane="52o_0" departPos="5.10" departSpeed="0.00" departDelay="0.00" arrival="457.00" arrivalLane="51i_0" arrivalPos="10.00" arrivalSpeed="11.70" duration="287.00" routeLength="1015.10" waitSteps="123" timeLoss="210.51" rerouteNo="0" devices="tripinfo_left_24" vType="typeWE" speedFactor="1.00" vaporized=""/>
    <tripinfo id="left_25" depart="175.00" departLane="52o_0" departPos="5.10" departSpeed="0.00" departDelay="0.00" arrival="477.00" arrivalLane="51i_0" arrivalPos="10.00" arrivalSpeed="11.82" duration="302.00" routeLength="1015.10" waitSteps="130" timeLoss="225.65" rerouteNo="0" devices="tripinfo_left_25" vType="typeWE" speedFactor="1.00" vaporized=""/>
    <tripinfo id="right_37" depart="313.00" departLane="51o_0" departPos="5.10" departSpeed="0.00" departDelay="0.00" arrival="477.00" arrivalLane="52i_0" arrivalPos="10.00" arrivalSpeed="11.40" duration="164.00" routeLength="1015.10" waitSteps="42" timeLoss="87.94" rerouteNo="0" devices="tripinfo_right_37" vType="typeWE" speedFactor="1.00" vaporized=""/>
    <tripinfo id="right_39" depart="326.00" departLane="51o_0" departPos="5.10" departSpeed="0.00" departDelay="0.00" arrival="510.00" arrivalLane="52i_0" arrivalPos="10.00" arrivalSpeed="11.33" duration="184.00" routeLength="1015.10" waitSteps="53" timeLoss="107.93" rerouteNo="0" devices="tripinfo_right_39" vType="typeWE" speedFactor="1.00" vaporized=""/>
    <tripinfo id="left_30" depart="221.00" departLane="52o_0" departPos="5.10" departSpeed="0.00" departDelay="0.00" arrival="511.00" arrivalLane="51i_0" arrivalPos="10.00" arrivalSpeed="11.41" duration="290.00" routeLength="1015.10" waitSteps="125" timeLoss="213.30" rerouteNo="0" devices="tripinfo_left_30" vType="typeWE" speedFactor="1.00" vaporized=""/>
    <tripinfo id="left_31" depart="235.00" departLane="52o_0" departPos="5.10" departSpeed="0.00" departDelay="2.00" arrival="525.00" arrivalLane="51i_0" arrivalPos="10.00" arrivalSpeed="11.28" duration="290.00" routeLength="1015.10" waitSteps="121" timeLoss="214.10" rerouteNo="0" devices="tripinfo_left_31" vType="typeWE" speedFactor="1.00" vaporized=""/>
    <tripinfo id="right_41" depart="347.00" departLane="51o_0" departPos="5.10" departSpeed="0.00" departDelay="0.00" arrival="525.00" arrivalLane="52i_0" arrivalPos="10.00" arrivalSpeed="11.52" duration="178.00" routeLength="1015.10" waitSteps="51" timeLoss="101.56" rerouteNo="0" devices="tripinfo_right_41" vType="typeWE" speedFactor="1.00" vaporized=""/>
    <tripinfo id="right_42" depart="359.00" departLane="51o_0" departPos="5.10" departSpeed="0.00" departDelay="0.00" arrival="557.00" arrivalLane="52i_0" arrivalPos="10.00" arrivalSpeed="11.45" duration="198.00" routeLength="1015.10" waitSteps="65" timeLoss="121.54" rerouteNo="0" devices="tripinfo_right_42" vType="typeWE" speedFactor="1.00" vaporized=""/>
    <tripinfo id="left_32" depart="241.00" departLane="52o_0" departPos="5.10" departSpeed="0.00" departDelay="0.00" arrival="558.00" arrivalLane="51i_0" arrivalPos="10.00" arrivalSpeed="11.61" duration="317.00" routeLength="1015.10" waitSteps="137" timeLoss="240.57" rerouteNo="0" devices="tripinfo_left_32" vType="typeWE" speedFactor="1.00" vaporized=""/>
    <tripinfo id="left_33" depart="249.00" departLane="52o_0" departPos="5.10" departSpeed="0.00" departDelay="0.00" arrival="574.00" arrivalLane="51i_0" arrivalPos="10.00" arrivalSpeed="11.51" duration="325.00" routeLength="1015.10" waitSteps="138" timeLoss="248.76" rerouteNo="0" devices="tripinfo_left_33" vType="typeWE" speedFactor="1.00" vaporized=""/>
    <tripinfo id="right_43" depart="364.00" departLane="51o_0" departPos="5.10" departSpeed="0.00" departDelay="0.00" arrival="574.00" arrivalLane="52i_0" arrivalPos="10.00" arrivalSpeed="11.47" duration="210.00" routeLength="1015.10" waitSteps="71" timeLoss="133.75" rerouteNo="0" devices="tripinfo_right_43" vType="typeWE" speedFactor="1.00" vaporized=""/>
    <tripinfo id="right_47" depart="388.00" departLane="51o_0" departPos="5.10" departSpeed="0.00" departDelay="0.00" arrival="592.00" arrivalLane="52i_0" arrivalPos="10.00" arrivalSpeed="11.27" duration="204.00" routeLength="1015.10" waitSteps="69" timeLoss="128.05" rerouteNo="0" devices="tripinfo_right_47" vType="typeWE" speedFactor="1.00" vaporized=""/>
    <tripinfo id="left_38" depart="322.00" departLane="52o_0" departPos="5.10" departSpeed="0.00" departDelay="0.00" arrival="593.00" arrivalLane="51i_0" arrivalPos="10.00" arrivalSpeed="11.58" duration="271.00" routeLength="1015.10" waitSteps="106" timeLoss="194.78" rerouteNo="0" devices="tripinfo_left_38" vType="typeWE" speedFactor="1.00" vaporized=""/>
    <tripinfo id="left_40" depart="327.00" departLane="52o_0" departPos="5.10" departSpeed="0.00" departDelay="1.00" arrival="595.00" arrivalLane="51i_0" arrivalPos="10.00" arrivalSpeed="10.65" duration="268.00" routeLength="1015.10" waitSteps="97" timeLoss="191.78" rerouteNo="0" devices="tripinfo_left_40" vType="typeWE" speedFactor="1.00" vaporized=""/>
    <tripinfo id="right_48" depart="396.00" departLane="51o_0" departPos="5.10" departSpeed="0.00" departDelay="0.00" arrival="595.00" arrivalLane="52i_0" arrivalPos="10.00" arrivalSpeed="11.64" duration="199.00" routeLength="1015.10" waitSteps="64" timeLoss="122.22" rerouteNo="0" devices="tripinfo_right_48" vType="typeWE" speedFactor="1.00" vaporized=""/>
    <tripinfo id="left_44" depart="367.00" departLane="52o_0" departPos="5.10" departSpeed="0.00" departDelay="0.00" arrival="615.00" arrivalLane="51i_0" arrivalPos="10.00" arrivalSpeed="11.62" duration="248.00" routeLength="1015.10" waitSteps="86" timeLoss="172.00" rerouteNo="0" devices="tripinfo_left_44" vType="typeWE" speedFactor="1.00" vaporized=""/>
    <tripinfo id="right_50" depart="401.00" departLane="51o_0" departPos="5.10" departSpeed="0.00" departDelay="1.00" arrival="615.00" arrivalLane="52i_0" arrivalPos="10.00" arrivalSpeed="11.22" duration="214.00" routeLength="1015.10" waitSteps="71" timeLoss="137.88" rerouteNo="0" devices="tripinfo_right_50" vType="typeWE" speedFactor="1.00" vaporized=""/>
    <tripinfo id="left_45" depart="376.00" departLane="52o_0" departPos="5.10" departSpeed="0.00" departDelay="0.00" arrival="648.00" arrivalLane="51i_0" arrivalPos="10.00" arrivalSpeed="11.52" duration="272.00" routeLength="1015.10" waitSteps="110" timeLoss="196.04" rerouteNo="0" devices="tripinfo_left_45" vType="typeWE" speedFactor="1.00" vaporized=""/>
    <tripinfo id="right_51" depart="443.00" departLane="51o_0" departPos="5.10" departSpeed="0.00" departDelay="0.00" arrival="648.00" arrivalLane="52i_0" arrivalPos="10.00" arrivalSpeed="11.75" duration="205.00" routeLength="1015.10" waitSteps="75" timeLoss="129.15" rerouteNo="0" devices="tripinfo_right_51" vType="typeWE" speedFactor="1.00" vaporized=""/>
    <tripinfo id="left_46" depart="383.00" departLane="52o_0" departPos="5.10" departSpeed="0.00" departDelay="1.00" arrival="672.00" arrivalLane="51i_0" arrivalPos="10.00" arrivalSpeed="11.60" duration="289.00" routeLength="1015.10" waitSteps="121" timeLoss="212.78" rerouteNo="0" devices="tripinfo_left_46" vType="typeWE" speedFactor="1.00" vaporized=""/>
    <tripinfo id="right_52" depart="448.00" departLane="51o_0" departPos="5.10" departSpeed="0.00" departDelay="2.00" arrival="673.00" arrivalLane="52i_0" arrivalPos="10.00" arrivalSpeed="11.50" duration="225.00" routeLength="1015.10" waitSteps="88" timeLoss="148.49" rerouteNo="0" devices="tripinfo_right_52" vType="typeWE" speedFactor="1.00" vaporized=""/>
    <tripinfo id="left_49" depart="399.00" departLane="52o_0" departPos="5.10" departSpeed="0.00" departDelay="0.00" arrival="708.00" arrivalLane="51i_0" arrivalPos="10.00" arrivalSpeed="11.28" duration="309.00" routeLength="1015.10" waitSteps="140" timeLoss="232.97" rerouteNo="0" devices="tripinfo_left_49" vType="typeWE" speedFactor="1.00" vaporized=""/>
    <tripinfo id="right_54" depart="457.00" departLane="51o_0" departPos="5.10" departSpeed="0.00" departDelay="1.00" arrival="709.00" arrivalLane="52i_0" arrivalPos="10.00" arrivalSpeed="11.60" duration="252.00" routeLength="1015.10" waitSteps="102" timeLoss="175.35" rerouteNo="0" devices="tripinfo_right_54" vType="typeWE" speedFactor="1.00" vaporized=""/>
    <tripinfo id="right_55" depart="463.00" departLane="51o_0" departPos="5.10" departSpeed="0.00" departDelay="0.00" arrival="743.00" arrivalLane="52i_0" arrivalPos="10.00" arrivalSpeed="11.57" duration="280.00" routeLength="1015.10" waitSteps="122" timeLoss="203.86" rerouteNo="0" devices="tripinfo_right_55" vType="typeWE" speedFactor="1.00" vaporized=""/>
    <tripinfo id="left_53" depart="450.00" departLane="52o_0" departPos="5.10" departSpeed="0.00" departDelay="0.00" arrival="744.00" arrivalLane="51i_0" arrivalPos="10.00" arrivalSpeed="11.76" duration="294.00" routeLength="1015.10" waitSteps="133" timeLoss="217.54" rerouteNo="0" devices="tripinfo_left_53" vType="typeWE" speedFactor="1.00" vaporized=""/>
    <tripinfo id="left_57" depart="517.00" departLane="52o_0" departPos="5.10" departSpeed="0.00" departDelay="0.00" arrival="775.00" arrivalLane="51i_0" arrivalPos="10.00" arrivalSpeed="10.87" duration="258.00" routeLength="1015.10" waitSteps="112" timeLoss="181.82" rerouteNo="0" devices="tripinfo_left_57" vType="typeWE" speedFactor="1.00" vaporized=""/>
    <tripinfo id="right_56" depart="495.00" departLane="51o_0" departPos="5.10" departSpeed="0.00" departDelay="0.00" arrival="775.00" arrivalLane="52i_0" arrivalPos="10.00" arrivalSpeed="11.59" duration="280.00" routeLength="1015.10" waitSteps="125" timeLoss="203.30" rerouteNo="0" devices="tripinfo_right_56" vType="typeWE" speedFactor="1.00" vaporized=""/>
    <tripinfo id="right_58" depart="518.00" departLane="51o_0" departPos="5.10" departSpeed="0.00" departDelay="0.00" arrival="792.00" arrivalLane="52i_0" arrivalPos="10.00" arrivalSpeed="11.51" duration="274.00" routeLength="1015.10" waitSteps="125" timeLoss="197.95" rerouteNo="0" devices="tripinfo_right_58" vType="typeWE" speedFactor="1.00" vaporized=""/>
    <tripinfo id="left_59" depart="522.00" departLane="52o_0" departPos="5.10" departSpeed="0.00" departDelay="0.00" arrival="793.00" arrivalLane="51i_0" arrivalPos="10.00" arrivalSpeed="11.37" duration="271.00" routeLength="1015.10" waitSteps="119" timeLoss="194.82" rerouteNo="0" devices="tripinfo_left_59" vType="typeWE" speedFactor="1.00" vaporized=""/>
    <tripinfo id="left_60" depart="536.00" departLane="52o_0" departPos="5.10" departSpeed="0.00" departDelay="0.00" arrival="812.00" arrivalLane="51i_0" arrivalPos="10.00" arrivalSpeed="11.08" duration="276.00" routeLength="1015.10" waitSteps="123" timeLoss="199.82" rerouteNo="0" devices="tripinfo_left_60" vType="typeWE" speedFactor="1.00" vaporized=""/>
    <tripinfo id="right_65" depart="588.00" departLane="51o_0" departPos="5.10" departSpeed="0.00" departDelay="0.00" arrival="812.00" arrivalLane="52i_0" arrivalPos="10.00" arrivalSpeed="11.02" duration="224.00" routeLength="1015.10" waitSteps="87" timeLoss="147.92" rerouteNo="0" devices="tripinfo_right_65" vType="typeWE" speedFactor="1.00" vaporized=""/>
    <tripinfo id="left_61" depart="554.00" departLane="52o_0" departPos="5.10" departSpeed="0.00" departDelay="0.00" arrival="829.00" arrivalLane="51i_0" arrivalPos="10.00" arrivalSpeed="11.63" duration="275.00" routeLength="1015.10" waitSteps="118" timeLoss="198.50" rerouteNo="0" devices="tripinfo_left_61" vType="typeWE" speedFactor="1.00" vaporized=""/>
    <tripinfo id="right_74" depart="646.00" departLane="51o_0" departPos="5.10" departSpeed="0.00" departDelay="0.00" arrival="829.00" arrivalLane="52i_0" arrivalPos="10.00" arrivalSpeed="11.15" duration="183.00" routeLength="1015.10" waitSteps="50" timeLoss="107.01" rerouteNo="0" devices="tripinfo_right_74" vType="typeWE" speedFactor="1.00" vaporized=""/>
    <tripinfo id="left_62" depart="559.00" departLane="52o_0" departPos="5.10" departSpeed="0.00" departDelay="2.00" arrival="853.00" arrivalLane="51i_0" arrivalPos="10.00" arrivalSpeed="11.48" duration="294.00" routeLength="1015.10" waitSteps="131" timeLoss="217.96" rerouteNo="0" devices="tripinfo_left_62" vType="typeWE" speedFactor="1.00" vaporized=""/>
    <tripinfo id="right_76" depart="654.00" departLane="51o_0" departPos="5.10" departSpeed="0.00" departDelay="0.00" arrival="854.00" arrivalLane="52i_0" arrivalPos="10.00" arrivalSpeed="11.72" duration="200.00" routeLength="1015.10" waitSteps="66" timeLoss="123.42" rerouteNo="0" devices="tripinfo_right_76" vType="typeWE" speedFactor="1.00" vaporized=""/>
    <tripinfo id="right_78" depart="683.00" departLane="51o_0" departPos="5.10" departSpeed="0.00" departDelay="0.00" arrival="873.00" arrivalLane="52i_0" arrivalPos="10.00" arrivalSpeed="11.39" duration="190.00" routeLength="1015.10" waitSteps="57" timeLoss="113.99" rerouteNo="0" devices="tripinfo_right_78" vType="typeWE" speedFactor="1.00" vaporized=""/>
    <tripinfo id="left_63" depart="564.00" departLane="52o_0" departPos="5.10" departSpeed="0.00" departDelay="6.00" arrival="874.00" arrivalLane="51i_0" arrivalPos="10.00" arrivalSpeed="11.78" duration="310.00" routeLength="1015.10" waitSteps="138" timeLoss="233.35" rerouteNo="0" devices="tripinfo_left_63" vType="typeWE" speedFactor="1.00" vaporized=""/>
    <tripinfo id="right_83" depart="704.00" departLane="51o_0" departPos="5.10" departSpeed="0.00" departDelay="0.00" arrival="890.00" arrivalLane="52i_0" arrivalPos="10.00" arrivalSpeed="10.81" duration="186.00" routeLength="1015.10" waitSteps="57" timeLoss="109.90" rerouteNo="0" devices="tripinfo_right_83" vType="typeWE" speedFactor="1.00" vaporized=""/>
    <tripinfo id="left_64" depart="569.00" departLane="52o_0" departPos="5.10" departSpeed="0.00" departDelay="1.00" arrival="890.00" arrivalLane="51i_0" arrivalPos="10.00" arrivalSpeed="11.57" duration="321.00" routeLength="1015.10" waitSteps="147" timeLoss="244.82" rerouteNo="0" devices="tripinfo_left_64" vType="typeWE" speedFactor="1.00" vaporized=""/>
    <tripinfo id="left_66" depart="592.00" departLane="52o_0" departPos="5.10" departSpeed="0.00" departDelay="1.00" arrival="922.00" arrivalLane="51i_0" arrivalPos="10.00" arrivalSpeed="11.70" duration="330.00" routeLength="1015.10" waitSteps="151" timeLoss="254.00" rerouteNo="0" devices="tripinfo_left_66" vType="typeWE" speedFactor="1.00" vaporized=""/>
    <tripinfo id="right_85" depart="709.00" departLane="51o_0" departPos="5.10" departSpeed="0.00" departDelay="0.00" arrival="922.00" arrivalLane="52i_0" arrivalPos="10.00" arrivalSpeed="11.30" duration="213.00" routeLength="1015.10" waitSteps="82" timeLoss="136.91" rerouteNo="0" devices="tripinfo_right_85" vType="typeWE" speedFactor="1.00" vaporized=""/>
    <tripinfo id="left_67" depart="598.00" departLane="52o_0" departPos="5.10" departSpeed="0.00" departDelay="0.00" arrival="938.00" arrivalLane="51i_0" arrivalPos="10.00" arrivalSpeed="11.65" duration="340.00" routeLength="1015.10" waitSteps="155" timeLoss="263.64" rerouteNo="0" devices="tripinfo_left_67" vType="typeWE" speedFactor="1.00" vaporized=""/>
    <tripinfo id="right_87" depart="723.00" departLane="51o_0" departPos="5.10" departSpeed="0.00" departDelay="0.00" arrival="938.00" arrivalLane="52i_0" arrivalPos="10.00" arrivalSpeed="11.64" duration="215.00" routeLength="1015.10" waitSteps="77" timeLoss="138.90" rerouteNo="0" devices="tripinfo_right_87" vType="typeWE" speedFactor="1.00" vaporized=""/>
    <tripinfo id="right_88" depart="738.00" departLane="51o_0" departPos="5.10" departSpeed="0.00" departDelay="0.00" arrival="958.00" arrivalLane="52i_0" arrivalPos="10.00" arrivalSpeed="11.23" duration="220.00" routeLength="1015.10" waitSteps="79" timeLoss="143.77" rerouteNo="0" devices="tripinfo_right_88" vType="typeWE" speedFactor="1.00" vaporized=""/>
    <tripinfo id="left_68" depart="603.00" departLane="52o_0" departPos="5.10" departSpeed="0.00" departDelay="3.00" arrival="959.00" arrivalLane="51i_0" arrivalPos="10.00" arrivalSpeed="11.84" duration="356.00" routeLength="1015.10" waitSteps="164" timeLoss="279.35" rerouteNo="0" devices="tripinfo_left_68" vType="typeWE" speedFactor="1.00" vaporized=""/>
    <tripinfo id="right_89" depart="744.00" departLane="51o_0" departPos="5.10" departSpeed="0.00" departDelay="3.00" arrival="993.00" arrivalLane="52i_0" arrivalPos="10.00" arrivalSpeed="10.99" duration="249.00" routeLength="1015.10" waitSteps="104" timeLoss="172.85" rerouteNo="0" devices="tripinfo_right_89" vType="typeWE" speedFactor="1.00" vaporized=""/>
    <tripinfo id="left_69" depart="608.00" departLane="52o_0" departPos="5.10" departSpeed="0.00" departDelay="0.00" arrival="994.00" arrivalLane="51i_0" arrivalPos="10.00" arrivalSpeed="11.74" duration="386.00" routeLength="1015.10" waitSteps="187" timeLoss="309.82" rerouteNo="0" devices="tripinfo_left_69" vType="typeWE" speedFactor="1.00" vaporized=""/>
    <tripinfo id="left_70" depart="623.00" departLane="52o_0" departPos="5.10" departSpeed="0.00" departDelay="0.00" arrival="1013.00" arrivalLane="51i_0" arrivalPos="10.00" arrivalSpeed="11.14" duration="390.00" routeLength="1015.10" waitSteps="181" timeLoss="313.43" rerouteNo="0" devices="tripinfo_left_70" vType="typeWE" speedFactor="1.00" vaporized=""/>
    <tripinfo id="right_91" depart="758.00" departLane="51o_0" departPos="5.10" departSpeed="0.00" departDelay="0.00" arrival="1015.00" arrivalLane="52i_0" arrivalPos="10.00" arrivalSpeed="11.42" duration="257.00" routeLength="1015.10" waitSteps="101" timeLoss="180.34" rerouteNo="0" devices="tripinfo_right_91" vType="typeWE" speedFactor="1.00" vaporized=""/>
    <tripinfo id="left_71" depart="630.00" departLane="52o_0" departPos="5.10" departSpeed="0.00" departDelay="0.00" arrival="1032.00" arrivalLane="51i_0" arrivalPos="10.00" arrivalSpeed="11.34" duration="402.00" routeLength="1015.10" waitSteps="183" timeLoss="325.52" rerouteNo="0" devices="tripinfo_left_71" vType="typeWE" speedFactor="1.00" vaporized=""/>