<?xml version="1.0" encoding="UTF-8"?>

<!-- generated on Fri Sep  8 16:23:19 2017 by SUMO gui Version 0.30.0
<?xml version="1.0" encoding="UTF-8"?>

<configuration xmlns:xsi="http://www.w3.org/2001/XMLSchema-instance" xsi:noNamespaceSchemaLocation="http://sumo.dlr.de/xsd/sumoConfiguration.xsd">

    <input>
        <net-file value="data/cross.net.xml"/>
        <route-files value="data/cross.rou.xml"/>
        <additional-files value="data/cross1.det.xml"/>
    </input>

    <output>
        <tripinfo-output value="tripinfo.xml"/>
    </output>

    <time>
        <begin value="0"/>
    </time>

    <report>
        <verbose value="true"/>
        <no-step-log value="true"/>
    </report>

    <traci_server>
        <remote-port value="50846"/>
    </traci_server>

    <gui_only>
        <gui-settings-file value="data/gui.settings.xml"/>
        <start value="true"/>
    </gui_only>

</configuration>
-->

<tripinfos xmlns:xsi="http://www.w3.org/2001/XMLSchema-instance" xsi:noNamespaceSchemaLocation="http://sumo.dlr.de/xsd/tripinfo_file.xsd">
    <tripinfo id="down_0" depart="3.00" departLane="54o_0" departPos="5.10" departSpeed="0.00" departDelay="0.00" arrival="97.00" arrivalLane="53i_0" arrivalPos="10.00" arrivalSpeed="11.43" duration="94.00" routeLength="1015.10" waitSteps="0" timeLoss="17.84" rerouteNo="0" devices="tripinfo_down_0" vType="typeNS" speedFactor="1.00" vaporized=""/>
    <tripinfo id="up_1" depart="4.00" departLane="53o_0" departPos="5.10" departSpeed="0.00" departDelay="0.00" arrival="100.00" arrivalLane="54i_0" arrivalPos="10.00" arrivalSpeed="11.51" duration="96.00" routeLength="1015.10" waitSteps="0" timeLoss="19.72" rerouteNo="0" devices="tripinfo_up_1" vType="typeNS" speedFactor="1.00" vaporized=""/>
    <tripinfo id="left_2" depart="13.00" departLane="52o_0" departPos="5.10" departSpeed="0.00" departDelay="0.00" arrival="120.00" arrivalLane="51i_0" arrivalPos="10.00" arrivalSpeed="11.53" duration="107.00" routeLength="1015.10" waitSteps="4" timeLoss="31.08" rerouteNo="0" devices="tripinfo_left_2" vType="typeWE" speedFactor="1.00" vaporized=""/>
    <tripinfo id="up_9" depart="35.00" departLane="53o_0" departPos="5.10" departSpeed="0.00" departDelay="0.00" arrival="128.00" arrivalLane="54i_0" arrivalPos="10.00" arrivalSpeed="11.84" duration="93.00" routeLength="1015.10" waitSteps="0" timeLoss="16.62" rerouteNo="0" devices="tripinfo_up_9" vType="typeNS" speedFactor="1.00" vaporized=""/>
    <tripinfo id="down_4" depart="16.00" departLane="54o_0" departPos="5.10" departSpeed="0.00" departDelay="0.00" arrival="130.00" arrivalLane="53i_0" arrivalPos="10.00" arrivalSpeed="11.47" duration="114.00" routeLength="1015.10" waitSteps="12" timeLoss="37.89" rerouteNo="0" devices="tripinfo_down_4" vType="typeNS" speedFactor="1.00" vaporized=""/>
    <tripinfo id="down_5" depart="21.00" departLane="54o_0" departPos="5.10" departSpeed="0.00" departDelay="3.00" arrival="133.00" arrivalLane="53i_0" arrivalPos="10.00" arrivalSpeed="11.37" duration="112.00" routeLength="1015.10" waitSteps="10" timeLoss="35.28" rerouteNo="0" devices="tripinfo_down_5" vType="typeNS" speedFactor="1.00" vaporized=""/>
    <tripinfo id="down_8" depart="35.00" departLane="54o_0" departPos="5.10" departSpeed="0.00" departDelay="0.00" arrival="135.00" arrivalLane="53i_0" arrivalPos="10.00" arrivalSpeed="11.77" duration="100.00" routeLength="1015.10" waitSteps="0" timeLoss="24.02" rerouteNo="0" devices="tripinfo_down_8" vType="typeNS" speedFactor="1.00" vaporized=""/>
    <tripinfo id="left_3" depart="18.00" departLane="52o_0" departPos="5.10" departSpeed="0.00" departDelay="3.00" arrival="147.00" arrivalLane="51i_0" arrivalPos="10.00" arrivalSpeed="11.20" duration="129.00" routeLength="1015.10" waitSteps="20" timeLoss="53.14" rerouteNo="0" devices="tripinfo_left_3" vType="typeWE" speedFactor="1.00" vaporized=""/>
    <tripinfo id="right_10" depart="44.00" departLane="51o_0" departPos="5.10" departSpeed="0.00" departDelay="0.00" arrival="148.00" arrivalLane="52i_0" arrivalPos="10.00" arrivalSpeed="11.22" duration="104.00" routeLength="1015.10" waitSteps="2" timeLoss="27.51" rerouteNo="0" devices="tripinfo_right_10" vType="typeWE" speedFactor="1.00" vaporized=""/>
    <tripinfo id="down_13" depart="63.00" departLane="54o_0" departPos="5.10" departSpeed="0.00" departDelay="0.00" arrival="155.00" arrivalLane="53i_0" arrivalPos="10.00" arrivalSpeed="11.39" duration="92.00" routeLength="1015.10" waitSteps="0" timeLoss="16.02" rerouteNo="0" devices="tripinfo_down_13" vType="typeNS" speedFactor="1.00" vaporized=""/>
    <tripinfo id="up_12" depart="56.00" departLane="53o_0" departPos="5.10" departSpeed="0.00" departDelay="0.00" arrival="160.00" arrivalLane="54i_0" arrivalPos="10.00" arrivalSpeed="11.35" duration="104.00" routeLength="1015.10" waitSteps="1" timeLoss="27.42" rerouteNo="0" devices="tripinfo_up_12" vType="typeNS" speedFactor="1.00" vaporized=""/>
    <tripinfo id="right_17" depart="68.00" departLane="51o_0" departPos="5.10" departSpeed="0.00" departDelay="0.00" arrival="165.00" arrivalLane="52i_0" arrivalPos="10.00" arrivalSpeed="11.13" duration="97.00" routeLength="1015.10" waitSteps="0" timeLoss="20.76" rerouteNo="0" devices="tripinfo_right_17" vType="typeWE" speedFactor="1.00" vaporized=""/>
    <tripinfo id="left_6" depart="30.00" departLane="52o_0" departPos="5.10" departSpeed="0.00" departDelay="0.00" arrival="169.00" arrivalLane="51i_0" arrivalPos="10.00" arrivalSpeed="11.49" duration="139.00" routeLength="1015.10" waitSteps="32" timeLoss="62.57" rerouteNo="0" devices="tripinfo_left_6" vType="typeWE" speedFactor="1.00" vaporized=""/>
    <tripinfo id="down_18" depart="74.00" departLane="54o_0" departPos="5.10" departSpeed="0.00" departDelay="0.00" arrival="178.00" arrivalLane="53i_0" arrivalPos="10.00" arrivalSpeed="11.56" duration="104.00" routeLength="1015.10" waitSteps="2" timeLoss="28.16" rerouteNo="0" devices="tripinfo_down_18" vType="typeNS" speedFactor="1.00" vaporized=""/>
    <tripinfo id="up_14" depart="64.00" departLane="53o_0" departPos="5.10" departSpeed="0.00" departDelay="0.00" arrival="178.00" arrivalLane="54i_0" arrivalPos="10.00" arrivalSpeed="11.46" duration="114.00" routeLength="1015.10" waitSteps="12" timeLoss="37.95" rerouteNo="0" devices="tripinfo_up_14" vType="typeNS" speedFactor="1.00" vaporized=""/>
    <tripinfo id="left_7" depart="35.00" departLane="52o_0" departPos="5.10" departSpeed="0.00" departDelay="3.00" arrival="190.00" arrivalLane="51i_0" arrivalPos="10.00" arrivalSpeed="11.41" duration="155.00" routeLength="1015.10" waitSteps="40" timeLoss="79.13" rerouteNo="0" devices="tripinfo_left_7" vType="typeWE" speedFactor="1.00" vaporized=""/>
    <tripinfo id="right_19" depart="79.00" departLane="51o_0" departPos="5.10" departSpeed="0.00" departDelay="0.00" arrival="191.00" arrivalLane="52i_0" arrivalPos="10.00" arrivalSpeed="11.45" duration="112.00" routeLength="1015.10" waitSteps="9" timeLoss="35.61" rerouteNo="0" devices="tripinfo_right_19" vType="typeWE" speedFactor="1.00" vaporized=""/>
    <tripinfo id="up_16" depart="69.00" departLane="53o_0" departPos="5.10" departSpeed="0.00" departDelay="2.00" arrival="199.00" arrivalLane="54i_0" arrivalPos="10.00" arrivalSpeed="10.74" duration="130.00" routeLength="1015.10" waitSteps="24" timeLoss="53.96" rerouteNo="0" devices="tripinfo_up_16" vType="typeNS" speedFactor="1.00" vaporized=""/>
    <tripinfo id="down_20" depart="89.00" departLane="54o_0" departPos="5.10" departSpeed="0.00" departDelay="0.00" arrival="199.00" arrivalLane="53i_0" arrivalPos="10.00" arrivalSpeed="11.39" duration="110.00" routeLength="1015.10" waitSteps="8" timeLoss="33.83" rerouteNo="0" devices="tripinfo_down_20" vType="typeNS" speedFactor="1.00" vaporized=""/>
    <tripinfo id="left_11" depart="51.00" departLane="52o_0" departPos="5.10" departSpeed="0.00" departDelay="0.00" arrival="208.00" arrivalLane="51i_0" arrivalPos="10.00" arrivalSpeed="11.57" duration="157.00" routeLength="1015.10" waitSteps="37" timeLoss="81.00" rerouteNo="0" devices="tripinfo_left_11" vType="typeWE" speedFactor="1.00" vaporized=""/>
    <tripinfo id="right_24" depart="121.00" departLane="51o_0" departPos="5.10" departSpeed="0.00" departDelay="0.00" arrival="216.00" arrivalLane="52i_0" arrivalPos="10.00" arrivalSpeed="11.36" duration="95.00" routeLength="1015.10" waitSteps="0" timeLoss="18.95" rerouteNo="0" devices="tripinfo_right_24" vType="typeWE" speedFactor="1.00" vaporized=""/>
    <tripinfo id="left_15" depart="66.00" departLane="52o_0" departPos="5.10" departSpeed="0.00" departDelay="0.00" arrival="223.00" arrivalLane="51i_0" arrivalPos="10.00" arrivalSpeed="11.46" duration="157.00" routeLength="1015.10" waitSteps="35" timeLoss="80.98" rerouteNo="0" devices="tripinfo_left_15" vType="typeWE" speedFactor="1.00" vaporized=""/>
    <tripinfo id="down_21" depart="94.00" departLane="54o_0" departPos="5.10" departSpeed="0.00" departDelay="4.00" arrival="231.00" arrivalLane="53i_0" arrivalPos="10.00" arrivalSpeed="11.61" duration="137.00" routeLength="1015.10" waitSteps="28" timeLoss="60.44" rerouteNo="0" devices="tripinfo_down_21" vType="typeNS" speedFactor="1.00" vaporized=""/>
    <tripinfo id="up_22" depart="103.00" departLane="53o_0" departPos="5.10" departSpeed="0.00" departDelay="0.00" arrival="231.00" arrivalLane="54i_0" arrivalPos="10.00" arrivalSpeed="11.42" duration="128.00" routeLength="1015.10" waitSteps="24" timeLoss="52.16" rerouteNo="0" devices="tripinfo_up_22" vType="typeNS" speedFactor="1.00" vaporized=""/>
    <tripinfo id="right_30" depart="158.00" departLane="51o_0" departPos="5.10" departSpeed="0.00" departDelay="0.00" arrival="250.00" arrivalLane="52i_0" arrivalPos="10.00" arrivalSpeed="11.51" duration="92.00" routeLength="1015.10" waitSteps="0" timeLoss="15.25" rerouteNo="0" devices="tripinfo_right_30" vType="typeWE" speedFactor="1.00" vaporized=""/>
    <tripinfo id="left_25" depart="124.00" departLane="52o_0" departPos="5.10" departSpeed="0.00" departDelay="0.00" arrival="255.00" arrivalLane="51i_0" arrivalPos="10.00" arrivalSpeed="11.65" duration="131.00" routeLength="1015.10" waitSteps="26" timeLoss="55.17" rerouteNo="0" devices="tripinfo_left_25" vType="typeWE" speedFactor="1.00" vaporized=""/>
    <tripinfo id="left_28" depart="129.00" departLane="52o_0" departPos="5.10" departSpeed="0.00" departDelay="1.00" arrival="258.00" arrivalLane="51i_0" arrivalPos="10.00" arrivalSpeed="11.70" duration="129.00" routeLength="1015.10" waitSteps="23" timeLoss="53.08" rerouteNo="0" devices="tripinfo_left_28" vType="typeWE" speedFactor="1.00" vaporized=""/>
    <tripinfo id="down_26" depart="125.00" departLane="54o_0" departPos="5.10" departSpeed="0.00" departDelay="0.00" arrival="269.00" arrivalLane="53i_0" arrivalPos="10.00" arrivalSpeed="11.50" duration="144.00" routeLength="1015.10" waitSteps="36" timeLoss="68.06" rerouteNo="0" devices="tripinfo_down_26" vType="typeNS" speedFactor="1.00" vaporized=""/>
    <tripinfo id="up_23" depart="108.00" departLane="53o_0" departPos="5.10" departSpeed="0.00" departDelay="4.00" arrival="270.00" arrivalLane="54i_0" arrivalPos="10.00" arrivalSpeed="11.57" duration="162.00" routeLength="1015.10" waitSteps="52" timeLoss="85.33" rerouteNo="0" devices="tripinfo_up_23" vType="typeNS" speedFactor="1.00" vaporized=""/>
    <tripinfo id="left_31" depart="161.00" departLane="52o_0" departPos="5.10" departSpeed="0.00" departDelay="0.00" arrival="294.00" arrivalLane="51i_0" arrivalPos="10.00" arrivalSpeed="11.66" duration="133.00" routeLength="1015.10" waitSteps="28" timeLoss="56.79" rerouteNo="0" devices="tripinfo_left_31" vType="typeWE" speedFactor="1.00" vaporized=""/>
    <tripinfo id="right_35" depart="188.00" departLane="51o_0" departPos="5.10" departSpeed="0.00" departDelay="0.00" arrival="295.00" arrivalLane="52i_0" arrivalPos="10.00" arrivalSpeed="11.22" duration="107.00" routeLength="1015.10" waitSteps="4" timeLoss="30.73" rerouteNo="0" devices="tripinfo_right_35" vType="typeWE" speedFactor="1.00" vaporized=""/>
    <tripinfo id="down_32" depart="163.00" departLane="54o_0" departPos="5.10" departSpeed="0.00" departDelay="0.00" arrival="304.00" arrivalLane="53i_0" arrivalPos="10.00" arrivalSpeed="11.45" duration="141.00" routeLength="1015.10" waitSteps="32" timeLoss="64.92" rerouteNo="0" devices="tripinfo_down_32" vType="typeNS" speedFactor="1.00" vaporized=""/>
    <tripinfo id="up_27" depart="127.00" departLane="53o_0" departPos="5.10" departSpeed="0.00" departDelay="0.00" arrival="304.00" arrivalLane="54i_0" arrivalPos="10.00" arrivalSpeed="11.40" duration="177.00" routeLength="1015.10" waitSteps="60" timeLoss="100.82" rerouteNo="0" devices="tripinfo_up_27" vType="typeNS" speedFactor="1.00" vaporized=""/>
    <tripinfo id="left_37" depart="192.00" departLane="52o_0" departPos="5.10" departSpeed="0.00" departDelay="0.00" arrival="311.00" arrivalLane="51i_0" arrivalPos="10.00" arrivalSpeed="11.07" duration="119.00" routeLength="1015.10" waitSteps="13" timeLoss="42.96" rerouteNo="0" devices="tripinfo_left_37" vType="typeWE" speedFactor="1.00" vaporized=""/>
    <tripinfo id="right_38" depart="193.00" departLane="51o_0" departPos="5.10" departSpeed="0.00" departDelay="0.00" arrival="311.00" arrivalLane="52i_0" arrivalPos="10.00" arrivalSpeed="11.46" duration="118.00" routeLength="1015.10" waitSteps="11" timeLoss="42.20" rerouteNo="0" devices="tripinfo_right_38" vType="typeWE" speedFactor="1.00" vaporized=""/>
    <tripinfo id="left_40" depart="197.00" departLane="52o_0" departPos="5.10" departSpeed="0.00" departDelay="2.00" arrival="327.00" arrivalLane="51i_0" arrivalPos="10.00" arrivalSpeed="11.56" duration="130.00" routeLength="1015.10" waitSteps="20" timeLoss="53.55" rerouteNo="0" devices="tripinfo_left_40" vType="typeWE" speedFactor="1.00" vaporized=""/>
    <tripinfo id="right_39" depart="198.00" departLane="51o_0" departPos="5.10" departSpeed="0.00" departDelay="3.00" arrival="327.00" arrivalLane="52i_0" arrivalPos="10.00" arrivalSpeed="11.47" duration="129.00" routeLength="1015.10" waitSteps="18" timeLoss="53.13" rerouteNo="0" devices="tripinfo_right_39" vType="typeWE" speedFactor="1.00" vaporized=""/>
    <tripinfo id="up_29" depart="142.00" departLane="53o_0" departPos="5.10" departSpeed="0.00" departDelay="0.00" arrival="335.00" arrivalLane="54i_0" arrivalPos="10.00" arrivalSpeed="11.68" duration="193.00" routeLength="1015.10" waitSteps="75" timeLoss="116.90" rerouteNo="0" devices="tripinfo_up_29" vType="typeNS" speedFactor="1.00" vaporized=""/>
    <tripinfo id="down_33" depart="175.00" departLane="54o_0" departPos="5.10" departSpeed="0.00" departDelay="0.00" arrival="336.00" arrivalLane="53i_0" arrivalPos="10.00" arrivalSpeed="11.39" duration="161.00" routeLength="1015.10" waitSteps="50" timeLoss="84.46" rerouteNo="0" devices="tripinfo_down_33" vType="typeNS" speedFactor="1.00" vaporized=""/>
    <tripinfo id="left_42" depart="209.00" departLane="52o_0" departPos="5.10" departSpeed="0.00" departDelay="0.00" arrival="343.00" arrivalLane="51i_0" arrivalPos="10.00" arrivalSpeed="11.48" duration="134.00" routeLength="1015.10" waitSteps="19" timeLoss="57.68" rerouteNo="0" devices="tripinfo_left_42" vType="typeWE" speedFactor="1.00" vaporized=""/>
    <tripinfo id="right_45" depart="220.00" departLane="51o_0" departPos="5.10" departSpeed="0.00" departDelay="0.00" arrival="343.00" arrivalLane="52i_0" arrivalPos="10.00" arrivalSpeed="11.50" duration="123.00" routeLength="1015.10" waitSteps="16" timeLoss="46.77" rerouteNo="0" devices="tripinfo_right_45" vType="typeWE" speedFactor="1.00" vaporized=""/>
    <tripinfo id="right_49" depart="238.00" departLane="51o_0" departPos="5.10" departSpeed="0.00" departDelay="0.00" arrival="357.00" arrivalLane="52i_0" arrivalPos="10.00" arrivalSpeed="11.24" duration="119.00" routeLength="1015.10" waitSteps="10" timeLoss="42.60" rerouteNo="0" devices="tripinfo_right_49" vType="typeWE" speedFactor="1.00" vaporized=""/>
    <tripinfo id="left_46" depart="225.00" departLane="52o_0" departPos="5.10" departSpeed="0.00" departDelay="0.00" arrival="358.00" arrivalLane="51i_0" arrivalPos="10.00" arrivalSpeed="11.69" duration="133.00" routeLength="1015.10" waitSteps="17" timeLoss="56.64" rerouteNo="0" devices="tripinfo_left_46" vType="typeWE" speedFactor="1.00" vaporized=""/>
    <tripinfo id="up_43" depart="210.00" departLane="53o_0" departPos="5.10" departSpeed="0.00" departDelay="0.00" arrival="366.00" arrivalLane="54i_0" arrivalPos="10.00" arrivalSpeed="11.65" duration="156.00" routeLength="1015.10" waitSteps="46" timeLoss="79.71" rerouteNo="0" devices="tripinfo_up_43" vType="typeNS" speedFactor="1.00" vaporized=""/>
    <tripinfo id="down_34" depart="180.00" departLane="54o_0" departPos="5.10" departSpeed="0.00" departDelay="3.00" arrival="367.00" arrivalLane="53i_0" arrivalPos="10.00" arrivalSpeed="11.65" duration="187.00" routeLength="1015.10" waitSteps="70" timeLoss="110.48" rerouteNo="0" devices="tripinfo_down_34" vType="typeNS" speedFactor="1.00" vaporized=""/>
    <tripinfo id="left_51" depart="250.00" departLane="52o_0" departPos="5.10" departSpeed="0.00" departDelay="1.00" arrival="373.00" arrivalLane="51i_0" arrivalPos="10.00" arrivalSpeed="11.33" duration="123.00" routeLength="1015.10" waitSteps="16" timeLoss="47.01" rerouteNo="0" devices="tripinfo_left_51" vType="typeWE" speedFactor="1.00" vaporized=""/>
    <tripinfo id="right_54" depart="256.00" departLane="51o_0" departPos="5.10" departSpeed="0.00" departDelay="0.00" arrival="373.00" arrivalLane="52i_0" arrivalPos="10.00" arrivalSpeed="11.30" duration="117.00" routeLength="1015.10" waitSteps="10" timeLoss="41.02" rerouteNo="0" devices="tripinfo_right_54" vType="typeWE" speedFactor="1.00" vaporized=""/>
    <tripinfo id="left_52" depart="255.00" departLane="52o_0" departPos="5.10" departSpeed="0.00" departDelay="4.00" arrival="389.00" arrivalLane="51i_0" arrivalPos="10.00" arrivalSpeed="11.53" duration="134.00" routeLength="1015.10" waitSteps="19" timeLoss="57.32" rerouteNo="0" devices="tripinfo_left_52" vType="typeWE" speedFactor="1.00" vaporized=""/>
    <tripinfo id="right_57" depart="267.00" departLane="51o_0" departPos="5.10" departSpeed="0.00" departDelay="0.00" arrival="389.00" arrivalLane="52i_0" arrivalPos="10.00" arrivalSpeed="11.29" duration="122.00" routeLength="1015.10" waitSteps="13" timeLoss="45.40" rerouteNo="0" devices="tripinfo_right_57" vType="typeWE" speedFactor="1.00" vaporized=""/>
    <tripinfo id="down_36" depart="191.00" departLane="54o_0" departPos="5.10" departSpeed="0.00" departDelay="0.00" arrival="400.00" arrivalLane="53i_0" arrivalPos="10.00" arrivalSpeed="11.42" duration="209.00" routeLength="1015.10" waitSteps="82" timeLoss="133.14" rerouteNo="0" devices="tripinfo_down_36" vType="typeNS" speedFactor="1.00" vaporized=""/>
    <tripinfo id="up_44" depart="219.00" departLane="53o_0" departPos="5.10" departSpeed="0.00" departDelay="0.00" arrival="400.00" arrivalLane="54i_0" arrivalPos="10.00" arrivalSpeed="11.25" duration="181.00" routeLength="1015.10" waitSteps="65" timeLoss="104.72" rerouteNo="0" devices="tripinfo_up_44" vType="typeNS" speedFactor="1.00" vaporized=""/>
    <tripinfo id="left_53" depart="260.00" departLane="52o_0" departPos="5.10" departSpeed="0.00" departDelay="8.00" arrival="411.00" arrivalLane="51i_0" arrivalPos="10.00" arrivalSpeed="11.40" duration="151.00" routeLength="1015.10" waitSteps="30" timeLoss="74.32" rerouteNo="0" devices="tripinfo_left_53" vType="typeWE" speedFactor="1.00" vaporized=""/>
    <tripinfo id="right_61" depart="297.00" departLane="51o_0" departPos="5.10" departSpeed="0.00" departDelay="0.00" arrival="411.00" arrivalLane="52i_0" arrivalPos="10.00" arrivalSpeed="11.46" duration="114.00" routeLength="1015.10" waitSteps="11" timeLoss="37.55" rerouteNo="0" devices="tripinfo_right_61" vType="typeWE" speedFactor="1.00" vaporized=""/>
    <tripinfo id="left_58" depart="267.00" departLane="52o_0" departPos="5.10" departSpeed="0.00" departDelay="0.00" arrival="429.00" arrivalLane="51i_0" arrivalPos="10.00" arrivalSpeed="11.54" duration="162.00" routeLength="1015.10" waitSteps="39" timeLoss="86.14" rerouteNo="0" devices="tripinfo_left_58" vType="typeWE" speedFactor="1.00" vaporized=""/>
    <tripinfo id="right_63" depart="306.00" departLane="51o_0" departPos="5.10" departSpeed="0.00" departDelay="0.00" arrival="429.00" arrivalLane="52i_0" arrivalPos="10.00" arrivalSpeed="11.47" duration="123.00" routeLength="1015.10" waitSteps="15" timeLoss="46.31" rerouteNo="0" devices="tripinfo_right_63" vType="typeWE" speedFactor="1.00" vaporized=""/>
    <tripinfo id="down_41" depart="201.00" departLane="54o_0" departPos="5.10" departSpeed="0.00" departDelay="0.00" arrival="436.00" arrivalLane="53i_0" arrivalPos="10.00" arrivalSpeed="11.52" duration="235.00" routeLength="1015.10" waitSteps="102" timeLoss="159.02" rerouteNo="0" devices="tripinfo_down_41" vType="typeNS" speedFactor="1.00" vaporized=""/>
    <tripinfo id="up_59" depart="267.00" departLane="53o_0" departPos="5.10" departSpeed="0.00" departDelay="0.00" arrival="437.00" arrivalLane="54i_0" arrivalPos="10.00" arrivalSpeed="11.33" duration="170.00" routeLength="1015.10" waitSteps="55" timeLoss="93.73" rerouteNo="0" devices="tripinfo_up_59" vType="typeNS" speedFactor="1.00" vaporized=""/>
    <tripinfo id="left_62" depart="297.00" departLane="52o_0" departPos="5.10" departSpeed="0.00" departDelay="0.00" arrival="447.00" arrivalLane="51i_0" arrivalPos="10.00" arrivalSpeed="11.53" duration="150.00" routeLength="1015.10" waitSteps="31" timeLoss="73.79" rerouteNo="0" devices="tripinfo_left_62" vType="typeWE" speedFactor="1.00" vaporized=""/>
    <tripinfo id="right_65" depart="317.00" departLane="51o_0" departPos="5.10" departSpeed="0.00" departDelay="0.00" arrival="447.00" arrivalLane="52i_0" arrivalPos="10.00" arrivalSpeed="11.68" duration="130.00" routeLength="1015.10" waitSteps="20" timeLoss="53.65" rerouteNo="0" devices="tripinfo_right_65" vType="typeWE" speedFactor="1.00" vaporized=""/>
    <tripinfo id="left_66" depart="317.00" departLane="52o_0" departPos="5.10" departSpeed="0.00" departDelay="0.00" arrival="449.00" arrivalLane="51i_0" arrivalPos="10.00" arrivalSpeed="10.35" duration="132.00" routeLength="1015.10" waitSteps="17" timeLoss="55.87" rerouteNo="0" devices="tripinfo_left_66" vType="typeWE" speedFactor="1.00" vaporized=""/>
    <tripinfo id="right_69" depart="343.00" departLane="51o_0" departPos="5.10" departSpeed="0.00" departDelay="1.00" arrival="450.00" arrivalLane="52i_0" arrivalPos="10.00" arrivalSpeed="11.75" duration="107.00" routeLength="1015.10" waitSteps="3" timeLoss="30.49" rerouteNo="0" devices="tripinfo_right_69" vType="typeWE" speedFactor="1.00" vaporized=""/>
    <tripinfo id="left_68" depart="340.00" departLane="52o_0" departPos="5.10" departSpeed="0.00" departDelay="0.00" arrival="451.00" arrivalLane="51i_0" arrivalPos="10.00" arrivalSpeed="9.83" duration="111.00" routeLength="1015.10" waitSteps="7" timeLoss="34.94" rerouteNo="0" devices="tripinfo_left_68" vType="typeWE" speedFactor="1.00" vaporized=""/>
    <tripinfo id="right_70" depart="348.00" departLane="51o_0" departPos="5.10" departSpeed="0.00" departDelay="2.00" arrival="452.00" arrivalLane="52i_0" arrivalPos="10.00" arrivalSpeed="8.59" duration="104.00" routeLength="1015.10" waitSteps="0" timeLoss="27.91" rerouteNo="0" devices="tripinfo_right_70" vType="typeWE" speedFactor="1.00" vaporized=""/>
    <tripinfo id="down_47" depart="231.00" departLane="54o_0" departPos="5.10" departSpeed="0.00" departDelay="1.00" arrival="463.00" arrivalLane="53i_0" arrivalPos="10.00" arrivalSpeed="11.29" duration="232.00" routeLength="1015.10" waitSteps="99" timeLoss="155.46" rerouteNo="0" devices="tripinfo_down_47" vType="typeNS" speedFactor="1.00" vaporized=""/>
    <tripinfo id="up_60" depart="293.00" departLane="53o_0" departPos="5.10" departSpeed="0.00" departDelay="0.00" arrival="463.00" arrivalLane="54i_0" arrivalPos="10.00" arrivalSpeed="11.53" duration="170.00" routeLength="1015.10" waitSteps="55" timeLoss="93.32" rerouteNo="0" devices="tripinfo_up_60" vType="typeNS" speedFactor="1.00" vaporized=""/>
    <tripinfo id="left_75" depart="374.00" departLane="52o_0" departPos="5.10" departSpeed="0.00" departDelay="0.00" arrival="465.00" arrivalLane="51i_0" arrivalPos="10.00" arrivalSpeed="11.49" duration="91.00" routeLength="1015.10" waitSteps="0" timeLoss="14.98" rerouteNo="0" devices="tripinfo_left_75" vType="typeWE" speedFactor="1.00" vaporized=""/>
    <tripinfo id="right_72" depart="353.00" departLane="51o_0" departPos="5.10" departSpeed="0.00" departDelay="2.00" arrival="471.00" arrivalLane="52i_0" arrivalPos="10.00" arrivalSpeed="11.73" duration="118.00" routeLength="1015.10" waitSteps="10" timeLoss="42.06" rerouteNo="0" devices="tripinfo_right_72" vType="typeWE" speedFactor="1.00" vaporized=""/>
    <tripinfo id="up_64" depart="310.00" departLane="53o_0" departPos="5.10" departSpeed="0.00" departDelay="0.00" arrival="479.00" arrivalLane="54i_0" arrivalPos="10.00" arrivalSpeed="10.74" duration="169.00" routeLength="1015.10" waitSteps="53" timeLoss="92.92" rerouteNo="0" devices="tripinfo_up_64" vType="typeNS" speedFactor="1.00" vaporized=""/>
    <tripinfo id="down_48" depart="236.00" departLane="54o_0" departPos="5.10" departSpeed="0.00" departDelay="5.00" arrival="479.00" arrivalLane="53i_0" arrivalPos="10.00" arrivalSpeed="11.65" duration="243.00" routeLength="1015.10" waitSteps="104" timeLoss="166.81" rerouteNo="0" devices="tripinfo_down_48" vType="typeNS" speedFactor="1.00" vaporized=""/>
    <tripinfo id="down_50" depart="242.00" departLane="54o_0" departPos="5.10" departSpeed="0.00" departDelay="0.00" arrival="495.00" arrivalLane="53i_0" arrivalPos="10.00" arrivalSpeed="11.25" duration="253.00" routeLength="1015.10" waitSteps="104" timeLoss="176.79" rerouteNo="0" devices="tripinfo_down_50" vType="typeNS" speedFactor="1.00" vaporized=""/>
    <tripinfo id="up_73" depart="358.00" departLane="53o_0" departPos="5.10" departSpeed="0.00" departDelay="0.00" arrival="495.00" arrivalLane="54i_0" arrivalPos="10.00" arrivalSpeed="11.56" duration="137.00" routeLength="1015.10" waitSteps="23" timeLoss="60.74" rerouteNo="0" devices="tripinfo_up_73" vType="typeNS" speedFactor="1.00" vaporized=""/>
    <tripinfo id="right_78" depart="402.00" departLane="51o_0" departPos="5.10" departSpeed="0.00" departDelay="0.00" arrival="497.00" arrivalLane="52i_0" arrivalPos="10.00" arrivalSpeed="11.61" duration="95.00" routeLength="1015.10" waitSteps="0" timeLoss="18.48" rerouteNo="0" devices="tripinfo_right_78" vType="typeWE" speedFactor="1.00" vaporized=""/>
    <tripinfo id="down_55" depart="262.00" departLane="54o_0" departPos="5.10" departSpeed="0.00" departDelay="0.00" arrival="511.00" arrivalLane="53i_0" arrivalPos="10.00" arrivalSpeed="11.32" duration="249.00" routeLength="1015.10" waitSteps="102" timeLoss="172.33" rerouteNo="0" devices="tripinfo_down_55" vType="typeNS" speedFactor="1.00" vaporized=""/>
    <tripinfo id="left_76" depart="392.00" departLane="52o_0" departPos="5.10" departSpeed="0.00" departDelay="0.00" arrival="520.00" arrivalLane="51i_0" arrivalPos="10.00" arrivalSpeed="11.10" duration="128.00" routeLength="1015.10" waitSteps="25" timeLoss="51.96" rerouteNo="0" devices="tripinfo_left_76" vType="typeWE" speedFactor="1.00" vaporized=""/>
    <tripinfo id="left_77" depart="400.00" departLane="52o_0" departPos="5.10" departSpeed="0.00" departDelay="0.00" arrival="536.00" arrivalLane="51i_0" arrivalPos="10.00" arrivalSpeed="11.64" duration="136.00" routeLength="1015.10" waitSteps="24" timeLoss="59.61" rerouteNo="0" devices="tripinfo_left_77" vType="typeWE" speedFactor="1.00" vaporized=""/>
    <tripinfo id="left_82" depart="429.00" departLane="52o_0" departPos="5.10" departSpeed="0.00" departDelay="2.00" arrival="551.00" arrivalLane="51i_0" arrivalPos="10.00" arrivalSpeed="11.74" duration="122.00" routeLength="1015.10" waitSteps="14" timeLoss="45.98" rerouteNo="0" devices="tripinfo_left_82" vType="typeWE" speedFactor="1.00" vaporized=""/>
    <tripinfo id="right_87" depart="449.00" departLane="51o_0" departPos="5.10" departSpeed="0.00" departDelay="1.00" arrival="551.00" arrivalLane="52i_0" arrivalPos="10.00" arrivalSpeed="11.37" duration="102.00" routeLength="1015.10" waitSteps="1" timeLoss="25.66" rerouteNo="0" devices="tripinfo_right_87" vType="typeWE" speedFactor="1.00" vaporized=""/>
    <tripinfo id="down_56" depart="267.00" departLane="54o_0" departPos="5.10" departSpeed="0.00" departDelay="3.00" arrival="559.00" arrivalLane="53i_0" arrivalPos="10.00" arrivalSpeed="11.44" duration="292.00" routeLength="1015.10" waitSteps="135" timeLoss="215.41" rerouteNo="0" devices="tripinfo_down_56" vType="typeNS" speedFactor="1.00" vaporized=""/>
    <tripinfo id="up_83" depart="431.00" departLane="53o_0" departPos="5.10" departSpeed="0.00" departDelay="0.00" arrival="560.00" arrivalLane="54i_0" arrivalPos="10.00" arrivalSpeed="11.27" duration="129.00" routeLength="1015.10" waitSteps="25" timeLoss="53.05" rerouteNo="0" devices="tripinfo_up_83" vType="typeNS" speedFactor="1.00" vaporized=""/>
    <tripinfo id="down_67" depart="338.00" departLane="54o_0" departPos="5.10" departSpeed="0.00" departDelay="0.00" arrival="575.00" arrivalLane="53i_0" arrivalPos="10.00" arrivalSpeed="11.31" duration="237.00" routeLength="1015.10" waitSteps="94" timeLoss="160.35" rerouteNo="0" devices="tripinfo_down_67" vType="typeNS" speedFactor="1.00" vaporized=""/>
    <tripinfo id="up_84" depart="441.00" departLane="53o_0" departPos="5.10" departSpeed="0.00" departDelay="0.00" arrival="577.00" arrivalLane="54i_0" arrivalPos="10.00" arrivalSpeed="11.73" duration="136.00" routeLength="1015.10" waitSteps="27" timeLoss="59.62" rerouteNo="0" devices="tripinfo_up_84" vType="typeNS" speedFactor="1.00" vaporized=""/>