<?xml version="1.0" encoding="UTF-8"?>

<!-- generated on Fri Sep  8 11:25:12 2017 by SUMO gui Version 0.30.0
<?xml version="1.0" encoding="UTF-8"?>

<configuration xmlns:xsi="http://www.w3.org/2001/XMLSchema-instance" xsi:noNamespaceSchemaLocation="http://sumo.dlr.de/xsd/sumoConfiguration.xsd">

    <input>
        <net-file value="data/cross.net.xml"/>
        <route-files value="data/cross.rou.xml"/>
        <additional-files value="data/cross1.det.xml"/>
    </input>

    <output>
        <tripinfo-output value="tripinfo.xml"/>
    </output>

    <time>
        <begin value="0"/>
    </time>

    <report>
        <verbose value="true"/>
        <no-step-log value="true"/>
    </report>

    <traci_server>
        <remote-port value="49621"/>
    </traci_server>

    <gui_only>
        <gui-settings-file value="data/gui.settings.xml"/>
    </gui_only>

</configuration>
-->

<tripinfos xmlns:xsi="http://www.w3.org/2001/XMLSchema-instance" xsi:noNamespaceSchemaLocation="http://sumo.dlr.de/xsd/tripinfo_file.xsd">
</tripinfos>
 id="left_3" depart="13.00" departLane="52o_0" departPos="5.10" departSpeed="0.00" departDelay="0.00" arrival="108.00" arrivalLane="51i_0" arrivalPos="10.00" arrivalSpeed="10.74" duration="95.00" routeLength="1015.10" waitSteps="0" timeLoss="18.91" rerouteNo="0" devices="tripinfo_left_3" vType="typeWE" speedFactor="1.00" vaporized=""/>
    <tripinfo id="up_1" depart="4.00" departLane="53o_0" departPos="7.10" departSpeed="0.00" departDelay="0.00" arrival="122.00" arrivalLane="54i_0" arrivalPos="10.00" arrivalSpeed="11.43" duration="118.00" routeLength="1013.10" waitSteps="18" timeLoss="46.72" rerouteNo="0" devices="tripinfo_up_1" vType="typeNS" speedFactor="1.00" vaporized=""/>
    <tripinfo id="down_0" depart="3.00" departLane="54o_0" departPos="7.10" departSpeed="0.00" departDelay="0.00" arrival="122.00" arrivalLane="53i_0" arrivalPos="10.00" arrivalSpeed="11.73" duration="119.00" routeLength="1013.10" waitSteps="18" timeLoss="47.65" rerouteNo="0" devices="tripinfo_down_0" vType="typeNS" speedFactor="1.00" vaporized=""/>
    <tripinfo id="left_6" depart="21.00" departLane="52o_0" departPos="5.10" departSpeed="0.00" departDelay="0.00" arrival="130.00" arrivalLane="51i_0" arrivalPos="10.00" arrivalSpeed="11.37" duration="109.00" routeLength="1015.10" waitSteps="7" timeLoss="32.71" rerouteNo="0" devices="tripinfo_left_6" vType="typeWE" speedFactor="1.00" vaporized=""/>
    <tripinfo id="up_4" depart="13.00" departLane="53o_0" departPos="7.10" departSpeed="0.00" departDelay="0.00" arrival="138.00" arrivalLane="54i_0" arrivalPos="10.00" arrivalSpeed="11.46" duration="125.00" routeLength="1013.10" waitSteps="19" timeLoss="53.29" rerouteNo="0" devices="tripinfo_up_4" vType="typeNS" speedFactor="1.00" vaporized=""/>
    <tripinfo id="down_2" depart="11.00" departLane="54o_0" departPos="7.10" departSpeed="0.00" departDelay="0.00" arrival="138.00" arrivalLane="53i_0" arrivalPos="10.00" arrivalSpeed="11.42" duration="127.00" routeLength="1013.10" waitSteps="22" timeLoss="55.65" rerouteNo="0" devices="tripinfo_down_2" vType="typeNS" speedFactor="1.00" vaporized=""/>
    <tripinfo id="up_5" depart="19.00" departLane="53o_0" departPos="7.10" departSpeed="0.00" departDelay="0.00" arrival="156.00" arrivalLane="54i_0" arrivalPos="10.00" arrivalSpeed="11.53" duration="137.00" routeLength="1013.10" waitSteps="22" timeLoss="65.21" rerouteNo="0" devices="tripinfo_up_5" vType="typeNS" speedFactor="1.00" vaporized=""/>
    <tripinfo id="down_8" depart="24.00" departLane="54o_0" departPos="7.10" departSpeed="0.00" departDelay="0.00" arrival="156.00" arrivalLane="53i_0" arrivalPos="10.00" arrivalSpeed="11.39" duration="132.00" routeLength="1013.10" waitSteps="19" timeLoss="60.00" rerouteNo="0" devices="tripinfo_down_8" vType="typeNS" speedFactor="1.00" vaporized=""/>
    <tripinfo id="right_14" depart="42.00" departLane="51o_0" departPos="5.10" departSpeed="0.00" departDelay="0.00" arrival="166.00" arrivalLane="52i_0" arrivalPos="10.00" arrivalSpeed="11.57" duration="124.00" routeLength="1015.10" waitSteps="21" timeLoss="47.70" rerouteNo="0" devices="tripinfo_right_14" vType="typeWE" speedFactor="1.00" vaporized=""/>
    <tripinfo id="up_9" depart="30.00" departLane="53o_0" departPos="7.10" departSpeed="0.00" departDelay="0.00" arrival="172.00" arrivalLane="54i_0" arrivalPos="10.00" arrivalSpeed="11.68" duration="142.00" routeLength="1013.10" waitSteps="25" timeLoss="70.70" rerouteNo="0" devices="tripinfo_up_9" vType="typeNS" speedFactor="1.00" vaporized=""/>
    <tripinfo id="down_11" depart="34.00" departLane="54o_0" departPos="7.10" departSpeed="0.00" departDelay="0.00" arrival="172.00" arrivalLane="53i_0" arrivalPos="10.00" arrivalSpeed="11.43" duration="138.00" routeLength="1013.10" waitSteps="24" timeLoss="66.33" rerouteNo="0" devices="tripinfo_down_11" vType="typeNS" speedFactor="1.00" vaporized=""/>
    <tripinfo id="left_7" depart="26.00" departLane="52o_0" departPos="5.10" departSpeed="0.00" departDelay="3.00" arrival="180.00" arrivalLane="51i_0" arrivalPos="10.00" arrivalSpeed="11.78" duration="154.00" routeLength="1015.10" waitSteps="45" timeLoss="77.47" rerouteNo="0" devices="tripinfo_left_7" vType="typeWE" speedFactor="1.00" vaporized=""/>
    <tripinfo id="right_17" depart="47.00" departLane="51o_0" departPos="5.10" departSpeed="0.00" departDelay="0.00" arrival="181.00" arrivalLane="52i_0" arrivalPos="10.00" arrivalSpeed="11.36" duration="134.00" routeLength="1015.10" waitSteps="25" timeLoss="57.71" rerouteNo="0" devices="tripinfo_right_17" vType="typeWE" speedFactor="1.00" vaporized=""/>
    <tripinfo id="up_10" depart="36.00" departLane="53o_0" departPos="7.10" departSpeed="0.00" departDelay="3.00" arrival="203.00" arrivalLane="54i_0" arrivalPos="10.00" arrivalSpeed="10.72" duration="167.00" routeLength="1013.10" waitSteps="46" timeLoss="95.42" rerouteNo="0" devices="tripinfo_up_10" vType="typeNS" speedFactor="1.00" vaporized=""/>
    <tripinfo id="down_15" depart="42.00" departLane="54o_0" departPos="7.10" departSpeed="0.00" departDelay="0.00" arrival="203.00" arrivalLane="53i_0" arrivalPos="10.00" arrivalSpeed="11.78" duration="161.00" routeLength="1013.10" waitSteps="38" timeLoss="89.53" rerouteNo="0" devices="tripinfo_down_15" vType="typeNS" speedFactor="1.00" vaporized=""/>
    <tripinfo id="left_12" depart="38.00" departLane="52o_0" departPos="5.10" departSpeed="0.00" departDelay="0.00" arrival="210.00" arrivalLane="51i_0" arrivalPos="10.00" arrivalSpeed="11.49" duration="172.00" routeLength="1015.10" waitSteps="60" timeLoss="95.70" rerouteNo="0" devices="tripinfo_left_12" vType="typeWE" speedFactor="1.00" vaporized=""/>
    <tripinfo id="right_24" depart="60.00" departLane="51o_0" departPos="5.10" departSpeed="0.00" departDelay="0.00" arrival="211.00" arrivalLane="52i_0" arrivalPos="10.00" arrivalSpeed="11.41" duration="151.00" routeLength="1015.10" waitSteps="34" timeLoss="74.44" rerouteNo="0" devices="tripinfo_right_24" vType="typeWE" speedFactor="1.00" vaporized=""/>
    <tripinfo id="down_21" depart="57.00" departLane="54o_0" departPos="7.10" departSpeed="0.00" departDelay="0.00" arrival="217.00" arrivalLane="53i_0" arrivalPos="10.00" arrivalSpeed="11.78" duration="160.00" routeLength="1013.10" waitSteps="41" timeLoss="88.35" rerouteNo="0" devices="tripinfo_down_21" vType="typeNS" speedFactor="1.00" vaporized=""/>
    <tripinfo id="up_20" depart="56.00" departLane="53o_0" departPos="7.10" departSpeed="0.00" departDelay="0.00" arrival="218.00" arrivalLane="54i_0" arrivalPos="10.00" arrivalSpeed="11.80" duration="162.00" routeLength="1013.10" waitSteps="39" timeLoss="90.02" rerouteNo="0" devices="tripinfo_up_20" vType="typeNS" speedFactor="1.00" vaporized=""/>
    <tripinfo id="right_27" depart="66.00" departLane="51o_0" departPos="5.10" departSpeed="0.00" departDelay="0.00" arrival="225.00" arrivalLane="52i_0" arrivalPos="10.00" arrivalSpeed="11.63" duration="159.00" routeLength="1015.10" waitSteps="35" timeLoss="83.12" rerouteNo="0" devices="tripinfo_right_27" vType="typeWE" speedFactor="1.00" vaporized=""/>
    <tripinfo id="left_13" depart="43.00" departLane="52o_0" departPos="5.10" departSpeed="0.00" departDelay="4.00" arrival="226.00" arrivalLane="51i_0" arrivalPos="10.00" arrivalSpeed="11.79" duration="183.00" routeLength="1015.10" waitSteps="64" timeLoss="107.01" rerouteNo="0" devices="tripinfo_left_13" vType="typeWE" speedFactor="1.00" vaporized=""/>
    <tripinfo id="up_22" depart="62.00" departLane="53o_0" departPos="7.10" departSpeed="0.00" departDelay="4.00" arrival="235.00" arrivalLane="54i_0" arrivalPos="10.00" arrivalSpeed="11.53" duration="173.00" routeLength="1013.10" waitSteps="43" timeLoss="101.57" rerouteNo="0" devices="tripinfo_up_22" vType="typeNS" speedFactor="1.00" vaporized=""/>
    <tripinfo id="down_25" depart="62.00" departLane="54o_0" departPos="7.10" departSpeed="0.00" departDelay="2.00" arrival="235.00" arrivalLane="53i_0" arrivalPos="10.00" arrivalSpeed="11.50" duration="173.00" routeLength="1013.10" waitSteps="45" timeLoss="100.86" rerouteNo="0" devices="tripinfo_down_25" vType="typeNS" speedFactor="1.00" vaporized=""/>
    <tripinfo id="up_23" depart="68.00" departLane="53o_0" departPos="7.10" departSpeed="0.00" departDelay="9.00" arrival="237.00" arrivalLane="54i_0" arrivalPos="10.00" arrivalSpeed="11.29" duration="169.00" routeLength="1013.10" waitSteps="38" timeLoss="97.57" rerouteNo="0" devices="tripinfo_up_23" vType="typeNS" speedFactor="1.00" vaporized=""/>
    <tripinfo id="down_26" depart="68.00" departLane="54o_0" departPos="7.10" departSpeed="0.00" departDelay="3.00" arrival="237.00" arrivalLane="53i_0" arrivalPos="10.00" arrivalSpeed="11.02" duration="169.00" routeLength="1013.10" waitSteps="45" timeLoss="97.56" rerouteNo="0" devices="tripinfo_down_26" vType="typeNS" speedFactor="1.00" vaporized=""/>
    <tripinfo id="right_30" depart="72.00" departLane="51o_0" departPos="5.10" departSpeed="0.00" departDelay="0.00" arrival="248.00" arrivalLane="52i_0" arrivalPos="10.00" arrivalSpeed="11.45" duration="176.00" routeLength="1015.10" waitSteps="49" timeLoss="99.46" rerouteNo="0" devices="tripinfo_right_30" vType="typeWE" speedFactor="1.00" vaporized=""/>
    <tripinfo id="left_16" depart="48.00" departLane="52o_0" departPos="5.10" departSpeed="0.00" departDelay="3.00" arrival="248.00" arrivalLane="51i_0" arrivalPos="10.00" arrivalSpeed="11.40" duration="200.00" routeLength="1015.10" waitSteps="74" timeLoss="123.83" rerouteNo="0" devices="tripinfo_left_16" vType="typeWE" speedFactor="1.00" vaporized=""/>
    <tripinfo id="down_33" depart="80.00" departLane="54o_0" departPos="7.10" departSpeed="0.00" departDelay="0.00" arrival="260.00" arrivalLane="53i_0" arrivalPos="10.00" arrivalSpeed="11.74" duration="180.00" routeLength="1013.10" waitSteps="49" timeLoss="108.21" rerouteNo="0" devices="tripinfo_down_33" vType="typeNS" speedFactor="1.00" vaporized=""/>
    <tripinfo id="up_28" depart="74.00" departLane="53o_0" departPos="7.10" departSpeed="0.00" departDelay="6.00" arrival="261.00" arrivalLane="54i_0" arrivalPos="10.00" arrivalSpeed="11.60" duration="187.00" routeLength="1013.10" waitSteps="50" timeLoss="115.47" rerouteNo="0" devices="tripinfo_up_28" vType="typeNS" speedFactor="1.00" vaporized=""/>
    <tripinfo id="right_32" depart="77.00" departLane="51o_0" departPos="5.10" departSpeed="0.00" departDelay="4.00" arrival="268.00" arrivalLane="52i_0" arrivalPos="10.00" arrivalSpeed="11.63" duration="191.00" routeLength="1015.10" waitSteps="59" timeLoss="114.94" rerouteNo="0" devices="tripinfo_right_32" vType="typeWE" speedFactor="1.00" vaporized=""/>
    <tripinfo id="left_18" depart="53.00" departLane="52o_0" departPos="5.10" departSpeed="0.00" departDelay="6.00" arrival="268.00" arrivalLane="51i_0" arrivalPos="10.00" arrivalSpeed="11.72" duration="215.00" routeLength="1015.10" waitSteps="79" timeLoss="138.52" rerouteNo="0" devices="tripinfo_left_18" vType="typeWE" speedFactor="1.00" vaporized=""/>
    <tripinfo id="down_37" depart="93.00" departLane="54o_0" departPos="7.10" departSpeed="0.00" departDelay="0.00" arrival="276.00" arrivalLane="53i_0" arrivalPos="10.00" arrivalSpeed="11.75" duration="183.00" routeLength="1013.10" waitSteps="49" timeLoss="111.29" rerouteNo="0" devices="tripinfo_down_37" vType="typeNS" speedFactor="1.00" vaporized=""/>
    <tripinfo id="up_31" depart="80.00" departLane="53o_0" departPos="7.10" departSpeed="0.00" departDelay="8.00" arrival="277.00" arrivalLane="54i_0" arrivalPos="10.00" arrivalSpeed="11.42" duration="197.00" routeLength="1013.10" waitSteps="54" timeLoss="125.49" rerouteNo="0" devices="tripinfo_up_31" vType="typeNS" speedFactor="1.00" vaporized=""/>
    <tripinfo id="right_40" depart="100.00" departLane="51o_0" departPos="5.10" departSpeed="0.00" departDelay="0.00" arrival="284.00" arrivalLane="52i_0" arrivalPos="10.00" arrivalSpeed="11.54" duration="184.00" routeLength="1015.10" waitSteps="53" timeLoss="107.86" rerouteNo="0" devices="tripinfo_right_40" vType="typeWE" speedFactor="1.00" vaporized=""/>
    <tripinfo id="left_19" depart="58.00" departLane="52o_0" departPos="5.10" departSpeed="0.00" departDelay="3.00" arrival="284.00" arrivalLane="51i_0" arrivalPos="10.00" arrivalSpeed="11.43" duration="226.00" routeLength="1015.10" waitSteps="87" timeLoss="149.61" rerouteNo="0" devices="tripinfo_left_19" vType="typeWE" speedFactor="1.00" vaporized=""/>
    <tripinfo id="right_45" depart="108.00" departLane="51o_0" departPos="5.10" departSpeed="0.00" departDelay="0.00" arrival="286.00" arrivalLane="52i_0" arrivalPos="10.00" arrivalSpeed="10.63" duration="178.00" routeLength="1015.10" waitSteps="47" timeLoss="101.92" rerouteNo="0" devices="tripinfo_right_45" vType="typeWE" speedFactor="1.00" vaporized=""/>
    <tripinfo id="up_46" depart="108.00" departLane="53o_0" departPos="7.10" departSpeed="0.00" departDelay="0.00" arrival="296.00" arrivalLane="54i_0" arrivalPos="10.00" arrivalSpeed="11.44" duration="188.00" routeLength="1013.10" waitSteps="48" timeLoss="116.47" rerouteNo="0" devices="tripinfo_up_46" vType="typeNS" speedFactor="1.00" vaporized=""/>
    <tripinfo id="down_39" depart="99.00" departLane="54o_0" departPos="7.10" departSpeed="0.00" departDelay="3.00" arrival="296.00" arrivalLane="53i_0" arrivalPos="10.00" arrivalSpeed="11.65" duration="197.00" routeLength="1013.10" waitSteps="56" timeLoss="125.18" rerouteNo="0" devices="tripinfo_down_39" vType="typeNS" speedFactor="1.00" vaporized=""/>
    <tripinfo id="left_29" depart="69.00" departLane="52o_0" departPos="5.10" departSpeed="0.00" departDelay="0.00" arrival="304.00" arrivalLane="51i_0" arrivalPos="10.00" arrivalSpeed="11.43" duration="235.00" routeLength="1015.10" waitSteps="91" timeLoss="158.50" rerouteNo="0" devices="tripinfo_left_29" vType="typeWE" speedFactor="1.00" vaporized=""/>
    <tripinfo id="up_48" depart="114.00" departLane="53o_0" departPos="7.10" departSpeed="0.00" departDelay="2.00" arrival="310.00" arrivalLane="54i_0" arrivalPos="10.00" arrivalSpeed="11.03" duration="196.00" routeLength="1013.10" waitSteps="49" timeLoss="124.44" rerouteNo="0" devices="tripinfo_up_48" vType="typeNS" speedFactor="1.00" vaporized=""/>
    <tripinfo id="down_41" depart="105.00" departLane="54o_0" departPos="7.10" departSpeed="0.00" departDelay="4.00" arrival="311.00" arrivalLane="53i_0" arrivalPos="10.00" arrivalSpeed="11.57" duration="206.00" routeLength="1013.10" waitSteps="55" timeLoss="134.69" rerouteNo="0" devices="tripinfo_down_41" vType="typeNS" speedFactor="1.00" vaporized=""/>
    <tripinfo id="right_47" depart="113.00" departLane="51o_0" departPos="5.10" departSpeed="0.00" departDelay="1.00" arrival="322.00" arrivalLane="52i_0" arrivalPos="10.00" arrivalSpeed="11.48" duration="209.00" routeLength="1015.10" waitSteps="69" timeLoss="132.74" rerouteNo="0" devices="tripinfo_right_47" vType="typeWE" speedFactor="1.00" vaporized=""/>
    <tripinfo id="down_42" depart="111.00" departLane="54o_0" departPos="7.10" departSpeed="0.00" departDelay="9.00" arrival="328.00" arrivalLane="53i_0" arrivalPos="10.00" arrivalSpeed="10.91" duration="217.00" routeLength="1013.10" waitSteps="63" timeLoss="145.47" rerouteNo="0" devices="tripinfo_down_42" vType="typeNS" speedFactor="1.00" vaporized=""/>
    <tripinfo id="up_51" depart="120.00" departLane="53o_0" departPos="7.10" departSpeed="0.00" departDelay="4.00" arrival="329.00" arrivalLane="54i_0" arrivalPos="10.00" arrivalSpeed="11.27" duration="209.00" routeLength="1013.10" waitSteps="57" timeLoss="137.46" rerouteNo="0" devices="tripinfo_up_51" vType="typeNS" speedFactor="1.00" vaporized=""/>
    <tripinfo id="left_34" depart="81.00" departLane="52o_0" departPos="5.10" departSpeed="0.00" departDelay="0.00" arrival="339.00" arrivalLane="51i_0" arrivalPos="10.00" arrivalSpeed="11.73" duration="258.00" routeLength="1015.10" waitSteps="104" timeLoss="181.62" rerouteNo="0" devices="tripinfo_left_34" vType="typeWE" speedFactor="1.00" vaporized=""/>
    <tripinfo id="up_52" depart="126.00" departLane="53o_0" departPos="7.10" departSpeed="0.00" departDelay="9.00" arrival="346.00" arrivalLane="54i_0" arrivalPos="10.00" arrivalSpeed="11.62" duration="220.00" routeLength="1013.10" waitSteps="64" timeLoss="148.56" rerouteNo="0" devices="tripinfo_up_52" vType="typeNS" speedFactor="1.00" vaporized=""/>
    <trtripinfo_left_71" vType="typeWE" speedFactor="1.00" vaporized=""/>
    <tripinfo id="right_64" depart="181.00" departLane="51o_0" departPos="5.10" departSpeed="0.00" departDelay="0.00" arrival="339.00" arrivalLane="52i_0" arrivalPos="10.00" arrivalSpeed="10.92" duration="158.00" routeLength="1015.10" waitSteps="37" timeLoss="81.92" rerouteNo="0" devices="tripinfo_right_64" vType="typeWE" speedFactor="1.00" vaporized=""/>
    <tripinfo id="right_65" depart="186.00" departLane="51o_0" departPos="5.10" departSpeed="0.00" departDelay="1.00" arrival="341.00" arrivalLane="52i_0" arrivalPos="10.00" arrivalSpeed="10.83" duration="155.00" routeLength="1015.10" waitSteps="36" timeLoss="78.81" rerouteNo="0" devices="tripinfo_right_65" vType="typeWE" speedFactor="1.00" vaporized=""/>
    <tripinfo id="left_77" depart="216.00" departLane="52o_0" departPos="5.10" departSpeed="0.00" departDelay="0.00" arrival="342.00" arrivalLane="51i_0" arrivalPos="10.00" arrivalSpeed="11.19" duration="126.00" routeLength="1015.10" waitSteps="18" timeLoss="49.42" rerouteNo="0" devices="tripinfo_left_77" vType="typeWE" speedFactor="1.00" vaporized=""/>
    <tripinfo id="right_70" depart="196.00" departLane="51o_0" departPos="5.10" departSpeed="0.00" departDelay="0.00" arrival="343.00" arrivalLane="52i_0" arrivalPos="10.00" arrivalSpeed="10.38" duration="147.00" routeLength="1015.10" waitSteps="35" timeLoss="70.92" rerouteNo="0" devices="tripinfo_right_70" vType="typeWE" speedFactor="1.00" vaporized=""/>
    <tripinfo id="left_84" depart="232.00" departLane="52o_0" departPos="5.10" departSpeed="0.00" departDelay="0.00" arrival="344.00" arrivalLane="51i_0" arrivalPos="10.00" arrivalSpeed="9.03" duration="112.00" routeLength="1015.10" waitSteps="6" timeLoss="35.92" rerouteNo="0" devices="tripinfo_left_84" vType="typeWE" speedFactor="1.00" vaporized=""/>
    <tripinfo id="right_72" depart="201.00" departLane="51o_0" departPos="5.10" departSpeed="0.00" departDelay="0.00" arrival="345.00" arrivalLane="52i_0" arrivalPos="10.00" arrivalSpeed="10.16" duration="144.00" routeLength="1015.10" waitSteps="36" timeLoss="67.89" rerouteNo="0" devices="tripinfo_right_72" vType="typeWE" speedFactor="1.00" vaporized=""/>
    <tripinfo id="left_86" depart="240.00" departLane="52o_0" departPos="5.10" departSpeed="0.00" departDelay="0.00" arrival="346.00" arrivalLane="51i_0" arrivalPos="10.00" arrivalSpeed="10.36" duration="106.00" routeLength="1015.10" waitSteps="0" timeLoss="29.84" rerouteNo="0" devices="tripinfo_left_86" vType="typeWE" speedFactor="1.00" vaporized=""/>
    <tripinfo id="right_76" depart="216.00" departLane="51o_0" departPos="5.10" departSpeed="0.00" departDelay="0.00" arrival="347.00" arrivalLane="52i_0" arrivalPos="10.00" arrivalSpeed="10.56" duration="131.00" routeLength="1015.10" waitSteps="23" timeLoss="54.89" rerouteNo="0" devices="tripinfo_right_76" vType="typeWE" speedFactor="1.00" vaporized=""/>
    <tripinfo id="left_90" depart="246.00" departLane="52o_0" departPos="5.10" departSpeed="0.00" departDelay="0.00" arrival="348.00" arrivalLane="51i_0" arrivalPos="10.00" arrivalSpeed="9.63" duration="102.00" routeLength="1015.10" waitSteps="0" timeLoss="25.86" rerouteNo="0" devices="tripinfo_left_90" vType="typeWE" speedFactor="1.00" vaporized=""/>
    <tripinfo id="up_15" depart="59.00" departLane="53o_0" departPos="7.10" departSpeed="0.00" departDelay="9.00" arrival="376.00" arrivalLane="54i_0" arrivalPos="10.00" arrivalSpeed="11.63" duration="317.00" routeLength="1013.10" waitSteps="178" timeLoss="245.52" rerouteNo="0" devices="tripinfo_up_15" vType="typeNS" speedFactor="1.00" vaporized=""/>
    <tripinfo id="down_18" depart="57.00" departLane="54o_0" departPos="7.10" departSpeed="0.00" departDelay="0.00" arrival="377.00" arrivalLane="53i_0" arrivalPos="10.00" arrivalSpeed="11.47" duration="320.00" routeLength="1013.10" waitSteps="190" timeLoss="247.92" rerouteNo="0" devices="tripinfo_down_18" vType="typeNS" speedFactor="1.00" vaporized=""/>
    <tripinfo id="right_78" depart="222.00" departLane="51o_0" departPos="5.10" departSpeed="0.00" departDelay="3.00" arrival="383.00" arrivalLane="52i_0" arrivalPos="10.00" arrivalSpeed="11.20" duration="161.00" routeLength="1015.10" waitSteps="42" timeLoss="85.19" rerouteNo="0" devices="tripinfo_right_78" vType="typeWE" speedFactor="1.00" vaporized=""/>
    <tripinfo id="left_91" depart="251.00" departLane="52o_0" departPos="5.10" departSpeed="0.00" departDelay="1.00" arrival="383.00" arrivalLane="51i_0" arrivalPos="10.00" arrivalSpeed="11.31" duration="132.00" routeLength="1015.10" waitSteps="24" timeLoss="55.87" rerouteNo="0" devices="tripinfo_left_91" vType="typeWE" speedFactor="1.00" vaporized=""/>
    <tripinfo id="down_22" depart="63.00" departLane="54o_0" departPos="7.10" departSpeed="0.00" departDelay="1.00" arrival="404.00" arrivalLane="53i_0" arrivalPos="10.00" arrivalSpeed="11.36" duration="341.00" routeLength="1013.10" waitSteps="198" timeLoss="269.66" rerouteNo="0" devices="tripinfo_down_22" vType="typeNS" speedFactor="1.00" vaporized=""/>
    <tripinfo id="right_85" depart="235.00" departLane="51o_0" departPos="5.10" departSpeed="0.00" departDelay="0.00" arrival="411.00" arrivalLane="52i_0" arrivalPos="10.00" arrivalSpeed="11.60" duration="176.00" routeLength="1015.10" waitSteps="53" timeLoss="99.57" rerouteNo="0" devices="tripinfo_right_85" vType="typeWE" speedFactor="1.00" vaporized=""/>
    <tripinfo id="left_96" depart="267.00" departLane="52o_0" departPos="5.10" departSpeed="0.00" departDelay="0.00" arrival="411.00" arrivalLane="51i_0" arrivalPos="10.00" arrivalSpeed="11.23" duration="144.00" routeLength="1015.10" waitSteps="34" timeLoss="68.09" rerouteNo="0" devices="tripinfo_left_96" vType="typeWE" speedFactor="1.00" vaporized=""/>
    <tripinfo id="up_23" depart="65.00" departLane="53o_0" departPos="7.10" departSpeed="0.00" departDelay="2.00" arrival="418.00" arrivalLane="54i_0" arrivalPos="10.00" arrivalSpeed="11.51" duration="353.00" routeLength="1013.10" waitSteps="203" timeLoss="281.42" rerouteNo="0" devices="tripinfo_up_23" vType="typeNS" speedFactor="1.00" vaporized=""/>
    <tripinfo id="down_27" depart="71.00" departLane="54o_0" departPos="7.10" departSpeed="0.00" departDelay="0.00" arrival="432.00" arrivalLane="53i_0" arrivalPos="10.00" arrivalSpeed="11.00" duration="361.00" routeLength="1013.10" waitSteps="211" timeLoss="289.37" rerouteNo="0" devices="tripinfo_down_27" vType="typeNS" speedFactor="1.00" vaporized=""/>
    <tripinfo id="right_88" depart="245.00" departLane="51o_0" departPos="5.10" departSpeed="0.00" departDelay="0.00" arrival="439.00" arrivalLane="52i_0" arrivalPos="10.00" arrivalSpeed="11.29" duration="194.00" routeLength="1015.10" waitSteps="66" timeLoss="118.16" rerouteNo="0" devices="tripinfo_right_88" vType="typeWE" speedFactor="1.00" vaporized=""/>
    <tripinfo id="left_107" depart="287.00" departLane="52o_0" departPos="5.10" departSpeed="0.00" departDelay="0.00" arrival="440.00" arrivalLane="51i_0" arrivalPos="10.00" arrivalSpeed="11.55" duration="153.00" routeLength="1015.10" waitSteps="41" timeLoss="76.52" rerouteNo="0" devices="tripinfo_left_107" vType="typeWE" speedFactor="1.00" vaporized=""/>
    <tripinfo id="up_25" depart="71.00" departLane="53o_0" departPos="7.10" departSpeed="0.00" departDelay="4.00" arrival="447.00" arrivalLane="54i_0" arrivalPos="10.00" arrivalSpeed="11.56" duration="376.00" routeLength="1013.10" waitSteps="214" timeLoss="304.57" rerouteNo="0" devices="tripinfo_up_25" vType="typeNS" speedFactor="1.00" vaporized=""/>
    <tripinfo id="down_32" depart="89.00" departLane="54o_0" departPos="7.10" departSpeed="0.00" departDelay="0.00" arrival="460.00" arrivalLane="53i_0" arrivalPos="10.00" arrivalSpeed="11.45" duration="371.00" routeLength="1013.10" waitSteps="214" timeLoss="299.36" rerouteNo="0" devices="tripinfo_down_32" vType="typeNS" speedFactor="1.00" vaporized=""/>
    <tripinfo id="right_95" depart="265.00" departLane="51o_0" departPos="5.10" departSpeed="0.00" departDelay="0.00" arrival="468.00" arrivalLane="52i_0" arrivalPos="10.00" arrivalSpeed="11.57" duration="203.00" routeLength="1015.10" waitSteps="76" timeLoss="126.59" rerouteNo="0" devices="tripinfo_right_95" vType="typeWE" speedFactor="1.00" vaporized=""/>
    <tripinfo id="left_117" depart="316.00" departLane="52o_0" departPos="5.10" departSpeed="0.00" departDelay="0.00" arrival="468.00" arrivalLane="51i_0" arrivalPos="10.00" arrivalSpeed="11.44" duration="152.00" routeLength="1015.10" waitSteps="39" timeLoss="75.51" rerouteNo="0" devices="tripinfo_left_117" vType="typeWE" speedFactor="1.00" vaporized=""/>
    <tripinfo id="up_26" depart="77.00" departLane="53o_0" departPos="7.10" departSpeed="0.00" departDelay="7.00" arrival="474.00" arrivalLane="54i_0" arrivalPos="10.00" arrivalSpeed="11.61" duration="397.00" routeLength="1013.10" waitSteps="230" timeLoss="325.16" rerouteNo="0" devices="tripinfo_up_26" vType="typeNS" speedFactor="1.00" vaporized=""/>
    <tripinfo id="right_98" depart="271.00" departLane="51o_0" departPos="5.10" departSpeed="0.00" departDelay="0.00" arrival="481.00" arrivalLane="52i_0" arrivalPos="10.00" arrivalSpeed="11.38" duration="210.00" routeLength="1015.10" waitSteps="75" timeLoss="133.93" rerouteNo="0" devices="tripinfo_right_98" vType="typeWE" speedFactor="1.00" vaporized=""/>
    <tripinfo id="left_120" depart="321.00" departLane="52o_0" departPos="5.10" departSpeed="0.00" departDelay="0.00" arrival="481.00" arrivalLane="51i_0" arrivalPos="10.00" arrivalSpeed="11.36" duration="160.00" routeLength="1015.10" waitSteps="43" timeLoss="84.07" rerouteNo="0" devices="tripinfo_left_120" vType="typeWE" speedFactor="1.00" vaporized=""/>
    <tripinfo id="right_100" depart="276.00" departLane="51o_0" departPos="5.10" departSpeed="0.00" departDelay="0.00" arrival="483.00" arrivalLane="52i_0" arrivalPos="10.00" arrivalSpeed="11.57" duration="207.00" routeLength="1015.10" waitSteps="69" timeLoss="130.90" rerouteNo="0" devices="tripinfo_right_100" vType="typeWE" speedFactor="1.00" vaporized=""/>
    <tripinfo id="left_123" depart="326.00" departLane="52o_0" departPos="5.10" departSpeed="0.00" departDelay="0.00" arrival="484.00" arrivalLane="51i_0" arrivalPos="10.00" arrivalSpeed="11.30" duration="158.00" routeLength="1015.10" waitSteps="37" timeLoss="81.57" rerouteNo="0" devices="tripinfo_left_123" vType="typeWE" speedFactor="1.00" vaporized=""/>
    <tripinfo id="right_102" depart="282.00" departLane="51o_0" departPos="5.10" departSpeed="0.00" departDelay="4.00" arrival="485.00" arrivalLane="52i_0" arrivalPos="10.00" arrivalSpeed="11.06" duration="203.00" routeLength="1015.10" waitSteps="63" timeLoss="126.91" rerouteNo="0" devices="tripinfo_right_102" vType="typeWE" speedFactor="1.00" vaporized=""/>
    <tripinfo id="right_111" depart="295.00" departLane="51o_0" departPos="5.10" departSpeed="0.00" departDelay="0.00" arrival="487.00" arrivalLane="52i_0" arrivalPos="10.00" arrivalSpeed="11.69" duration="192.00" routeLength="1015.10" waitSteps="55" timeLoss="115.92" rerouteNo="0" devices="tripinfo_right_111" vType="typeWE" speedFactor="1.00" vaporized=""/>
    <tripinfo id="left_126" depart="335.00" departLane="52o_0" departPos="5.10" departSpeed="0.00" departDelay="1.00" arrival="487.00" arrivalLane="51i_0" arrivalPos="10.00" arrivalSpeed="11.71" duration="152.00" routeLength="1015.10" waitSteps="28" timeLoss="75.34" rerouteNo="0" devices="tripinfo_left_126" vType="typeWE" speedFactor="1.00" vaporized=""/>
    <tripinfo id="left_135" depart="356.00" departLane="52o_0" departPos="5.10" departSpeed="0.00" departDelay="0.00" arrival="489.00" arrivalLane="51i_0" arrivalPos="10.00" arrivalSpeed="8.13" duration="133.00" routeLength="1015.10" waitSteps="18" timeLoss="56.99" rerouteNo="0" devices="tripinfo_left_135" vType="typeWE" speedFactor="1.00" vaporized=""/>
    <tripinfo id="right_112" depart="300.00" departLane="51o_0" departPos="5.10" departSpeed="0.00" departDelay="4.00" arrival="490.00" arrivalLane="52i_0" arrivalPos="10.00" arrivalSpeed="11.30" duration="190.00" routeLength="1015.10" waitSteps="50" timeLoss="113.19" rerouteNo="0" devices="tripinfo_right_112" vType="typeWE" speedFactor="1.00" vaporized=""/>
    <tripinfo id="left_139" depart="368.00" departLane="52o_0" departPos="5.10" departSpeed="0.00" departDelay="0.00" arrival="491.00" arrivalLane="51i_0" arrivalPos="10.00" arrivalSpeed="8.97" duration="123.00" routeLength="1015.10" waitSteps="9" timeLoss="46.93" rerouteNo="0" devices="tripinfo_left_139" vType="typeWE" speedFactor="1.00" vaporized=""/>