<?xml version="1.0" encoding="UTF-8"?>

<!-- generated on Fri Sep  8 16:53:51 2017 by SUMO gui Version 0.30.0
<?xml version="1.0" encoding="UTF-8"?>

<configuration xmlns:xsi="http://www.w3.org/2001/XMLSchema-instance" xsi:noNamespaceSchemaLocation="http://sumo.dlr.de/xsd/sumoConfiguration.xsd">

    <input>
        <net-file value="data/cross.net.xml"/>
        <route-files value="data/cross.rou.xml"/>
        <additional-files value="data/cross1.det.xml"/>
    </input>

    <output>
        <tripinfo-output value="tripinfo.xml"/>
    </output>

    <time>
        <begin value="0"/>
    </time>

    <report>
        <verbose value="true"/>
        <no-step-log value="true"/>
    </report>

    <traci_server>
        <remote-port value="51018"/>
    </traci_server>

    <gui_only>
        <gui-settings-file value="data/gui.settings.xml"/>
        <start value="true"/>
    </gui_only>

</configuration>
-->

<tripinfos xmlns:xsi="http://www.w3.org/2001/XMLSchema-instance" xsi:noNamespaceSchemaLocation="http://sumo.dlr.de/xsd/tripinfo_file.xsd">
    <tripinfo id="down_0" depart="10.00" departLane="54o_0" departPos="5.10" departSpeed="0.00" departDelay="0.00" arrival="101.00" arrivalLane="53i_0" arrivalPos="10.00" arrivalSpeed="11.63" duration="91.00" routeLength="1015.10" waitSteps="0" timeLoss="15.01" rerouteNo="0" devices="tripinfo_down_0" vType="typeNS" speedFactor="1.00" vaporized=""/>
    <tripinfo id="left_1" depart="12.00" departLane="52o_0" departPos="5.10" departSpeed="0.00" departDelay="0.00" arrival="116.00" arrivalLane="51i_0" arrivalPos="10.00" arrivalSpeed="11.49" duration="104.00" routeLength="1015.10" waitSteps="0" timeLoss="27.48" rerouteNo="0" devices="tripinfo_left_1" vType="typeWE" speedFactor="1.00" vaporized=""/>
    <tripinfo id="down_3" depart="17.00" departLane="54o_0" departPos="5.10" departSpeed="0.00" departDelay="0.00" arrival="124.00" arrivalLane="53i_0" arrivalPos="10.00" arrivalSpeed="11.39" duration="107.00" routeLength="1015.10" waitSteps="5" timeLoss="30.99" rerouteNo="0" devices="tripinfo_down_3" vType="typeNS" speedFactor="1.00" vaporized=""/>
    <tripinfo id="up_4" depart="20.00" departLane="53o_0" departPos="5.10" departSpeed="0.00" departDelay="0.00" arrival="124.00" arrivalLane="54i_0" arrivalPos="10.00" arrivalSpeed="11.54" duration="104.00" routeLength="1015.10" waitSteps="1" timeLoss="27.95" rerouteNo="0" devices="tripinfo_up_4" vType="typeNS" speedFactor="1.00" vaporized=""/>
    <tripinfo id="right_6" depart="32.00" departLane="51o_0" departPos="5.10" departSpeed="0.00" departDelay="0.00" arrival="126.00" arrivalLane="52i_0" arrivalPos="10.00" arrivalSpeed="11.81" duration="94.00" routeLength="1015.10" waitSteps="0" timeLoss="17.40" rerouteNo="0" devices="tripinfo_right_6" vType="typeWE" speedFactor="1.00" vaporized=""/>
    <tripinfo id="left_2" depart="17.00" departLane="52o_0" departPos="5.10" departSpeed="0.00" departDelay="0.00" arrival="147.00" arrivalLane="51i_0" arrivalPos="10.00" arrivalSpeed="11.74" duration="130.00" routeLength="1015.10" waitSteps="23" timeLoss="53.54" rerouteNo="0" devices="tripinfo_left_2" vType="typeWE" speedFactor="1.00" vaporized=""/>
    <tripinfo id="down_5" depart="29.00" departLane="54o_0" departPos="5.10" departSpeed="0.00" departDelay="0.00" arrival="155.00" arrivalLane="53i_0" arrivalPos="10.00" arrivalSpeed="11.68" duration="126.00" routeLength="1015.10" waitSteps="22" timeLoss="49.59" rerouteNo="0" devices="tripinfo_down_5" vType="typeNS" speedFactor="1.00" vaporized=""/>
    <tripinfo id="left_9" depart="59.00" departLane="52o_0" departPos="5.10" departSpeed="0.00" departDelay="0.00" arrival="163.00" arrivalLane="51i_0" arrivalPos="10.00" arrivalSpeed="11.55" duration="104.00" routeLength="1015.10" waitSteps="2" timeLoss="28.21" rerouteNo="0" devices="tripinfo_left_9" vType="typeWE" speedFactor="1.00" vaporized=""/>
    <tripinfo id="right_7" depart="51.00" departLane="51o_0" departPos="5.10" departSpeed="0.00" departDelay="0.00" arrival="164.00" arrivalLane="52i_0" arrivalPos="10.00" arrivalSpeed="11.27" duration="113.00" routeLength="1015.10" waitSteps="10" timeLoss="37.13" rerouteNo="0" devices="tripinfo_right_7" vType="typeWE" speedFactor="1.00" vaporized=""/>
    <tripinfo id="left_12" depart="67.00" departLane="52o_0" departPos="5.10" departSpeed="0.00" departDelay="0.00" arrival="165.00" arrivalLane="51i_0" arrivalPos="10.00" arrivalSpeed="11.44" duration="98.00" routeLength="1015.10" waitSteps="0" timeLoss="22.01" rerouteNo="0" devices="tripinfo_left_12" vType="typeWE" speedFactor="1.00" vaporized=""/>
    <tripinfo id="right_8" depart="57.00" departLane="51o_0" departPos="5.10" departSpeed="0.00" departDelay="0.00" arrival="166.00" arrivalLane="52i_0" arrivalPos="10.00" arrivalSpeed="11.32" duration="109.00" routeLength="1015.10" waitSteps="4" timeLoss="33.16" rerouteNo="0" devices="tripinfo_right_8" vType="typeWE" speedFactor="1.00" vaporized=""/>
    <tripinfo id="right_10" depart="63.00" departLane="51o_0" departPos="5.10" departSpeed="0.00" departDelay="3.00" arrival="168.00" arrivalLane="52i_0" arrivalPos="10.00" arrivalSpeed="11.22" duration="105.00" routeLength="1015.10" waitSteps="2" timeLoss="28.95" rerouteNo="0" devices="tripinfo_right_10" vType="typeWE" speedFactor="1.00" vaporized=""/>
    <tripinfo id="up_11" depart="64.00" departLane="53o_0" departPos="5.10" departSpeed="0.00" departDelay="0.00" arrival="182.00" arrivalLane="54i_0" arrivalPos="10.00" arrivalSpeed="11.50" duration="118.00" routeLength="1015.10" waitSteps="15" timeLoss="42.18" rerouteNo="0" devices="tripinfo_up_11" vType="typeNS" speedFactor="1.00" vaporized=""/>
    <tripinfo id="left_17" depart="94.00" departLane="52o_0" departPos="5.10" departSpeed="0.00" departDelay="0.00" arrival="185.00" arrivalLane="51i_0" arrivalPos="10.00" arrivalSpeed="11.66" duration="91.00" routeLength="1015.10" waitSteps="0" timeLoss="14.71" rerouteNo="0" devices="tripinfo_left_17" vType="typeWE" speedFactor="1.00" vaporized=""/>
    <tripinfo id="up_13" depart="81.00" departLane="53o_0" departPos="5.10" departSpeed="0.00" departDelay="0.00" arrival="222.00" arrivalLane="54i_0" arrivalPos="10.00" arrivalSpeed="11.42" duration="141.00" routeLength="1015.10" waitSteps="33" timeLoss="64.75" rerouteNo="0" devices="tripinfo_up_13" vType="typeNS" speedFactor="1.00" vaporized=""/>
    <tripinfo id="down_15" depart="89.00" departLane="54o_0" departPos="5.10" departSpeed="0.00" departDelay="0.00" arrival="223.00" arrivalLane="53i_0" arrivalPos="10.00" arrivalSpeed="11.28" duration="134.00" routeLength="1015.10" waitSteps="31" timeLoss="57.81" rerouteNo="0" devices="tripinfo_down_15" vType="typeNS" speedFactor="1.00" vaporized=""/>
    <tripinfo id="left_20" depart="111.00" departLane="52o_0" departPos="5.10" departSpeed="0.00" departDelay="0.00" arrival="231.00" arrivalLane="51i_0" arrivalPos="10.00" arrivalSpeed="11.24" duration="120.00" routeLength="1015.10" waitSteps="17" timeLoss="43.87" rerouteNo="0" devices="tripinfo_left_20" vType="typeWE" speedFactor="1.00" vaporized=""/>
    <tripinfo id="right_22" depart="120.00" departLane="51o_0" departPos="5.10" departSpeed="0.00" departDelay="0.00" arrival="232.00" arrivalLane="52i_0" arrivalPos="10.00" arrivalSpeed="11.56" duration="112.00" routeLength="1015.10" waitSteps="10" timeLoss="35.75" rerouteNo="0" devices="tripinfo_right_22" vType="typeWE" speedFactor="1.00" vaporized=""/>
    <tripinfo id="up_14" depart="86.00" departLane="53o_0" departPos="5.10" departSpeed="0.00" departDelay="3.00" arrival="242.00" arrivalLane="54i_0" arrivalPos="10.00" arrivalSpeed="11.67" duration="156.00" routeLength="1015.10" waitSteps="43" timeLoss="79.33" rerouteNo="0" devices="tripinfo_up_14" vType="typeNS" speedFactor="1.00" vaporized=""/>
    <tripinfo id="down_18" depart="99.00" departLane="54o_0" departPos="5.10" departSpeed="0.00" departDelay="0.00" arrival="243.00" arrivalLane="53i_0" arrivalPos="10.00" arrivalSpeed="11.15" duration="144.00" routeLength="1015.10" waitSteps="34" timeLoss="67.33" rerouteNo="0" devices="tripinfo_down_18" vType="typeNS" speedFactor="1.00" vaporized=""/>
    <tripinfo id="up_16" depart="93.00" departLane="53o_0" departPos="5.10" departSpeed="0.00" departDelay="0.00" arrival="244.00" arrivalLane="54i_0" arrivalPos="10.00" arrivalSpeed="11.46" duration="151.00" routeLength="1015.10" waitSteps="40" timeLoss="75.13" rerouteNo="0" devices="tripinfo_up_16" vType="typeNS" speedFactor="1.00" vaporized=""/>
    <tripinfo id="down_24" depart="141.00" departLane="54o_0" departPos="5.10" departSpeed="0.00" departDelay="0.00" arrival="245.00" arrivalLane="53i_0" arrivalPos="10.00" arrivalSpeed="8.17" duration="104.00" routeLength="1015.10" waitSteps="2" timeLoss="27.96" rerouteNo="0" devices="tripinfo_down_24" vType="typeNS" speedFactor="1.00" vaporized=""/>
    <tripinfo id="up_19" depart="104.00" departLane="53o_0" departPos="5.10" departSpeed="0.00" departDelay="0.00" arrival="246.00" arrivalLane="54i_0" arrivalPos="10.00" arrivalSpeed="11.38" duration="142.00" routeLength="1015.10" waitSteps="28" timeLoss="65.97" rerouteNo="0" devices="tripinfo_up_19" vType="typeNS" speedFactor="1.00" vaporized=""/>
    <tripinfo id="up_25" depart="143.00" departLane="53o_0" departPos="5.10" departSpeed="0.00" departDelay="0.00" arrival="248.00" arrivalLane="54i_0" arrivalPos="10.00" arrivalSpeed="10.83" duration="105.00" routeLength="1015.10" waitSteps="3" timeLoss="28.90" rerouteNo="0" devices="tripinfo_up_25" vType="typeNS" speedFactor="1.00" vaporized=""/>
    <tripinfo id="up_26" depart="148.00" departLane="53o_0" departPos="5.10" departSpeed="0.00" departDelay="4.00" arrival="250.00" arrivalLane="54i_0" arrivalPos="10.00" arrivalSpeed="10.75" duration="102.00" routeLength="1015.10" waitSteps="0" timeLoss="25.89" rerouteNo="0" devices="tripinfo_up_26" vType="typeNS" speedFactor="1.00" vaporized=""/>
    <tripinfo id="up_28" depart="155.00" departLane="53o_0" departPos="5.10" departSpeed="0.00" departDelay="1.00" arrival="252.00" arrivalLane="54i_0" arrivalPos="10.00" arrivalSpeed="11.46" duration="97.00" routeLength="1015.10" waitSteps="0" timeLoss="21.10" rerouteNo="0" devices="tripinfo_up_28" vType="typeNS" speedFactor="1.00" vaporized=""/>
    <tripinfo id="up_29" depart="160.00" departLane="53o_0" departPos="5.10" departSpeed="0.00" departDelay="1.00" arrival="254.00" arrivalLane="54i_0" arrivalPos="10.00" arrivalSpeed="11.05" duration="94.00" routeLength="1015.10" waitSteps="0" timeLoss="17.86" rerouteNo="0" devices="tripinfo_up_29" vType="typeNS" speedFactor="1.00" vaporized=""/>
    <tripinfo id="down_32" depart="171.00" departLane="54o_0" departPos="5.10" departSpeed="0.00" departDelay="0.00" arrival="262.00" arrivalLane="53i_0" arrivalPos="10.00" arrivalSpeed="11.66" duration="91.00" routeLength="1015.10" waitSteps="0" timeLoss="14.72" rerouteNo="0" devices="tripinfo_down_32" vType="typeNS" speedFactor="1.00" vaporized=""/>
    <tripinfo id="up_33" depart="173.00" departLane="53o_0" departPos="5.10" departSpeed="0.00" departDelay="0.00" arrival="264.00" arrivalLane="54i_0" arrivalPos="10.00" arrivalSpeed="11.55" duration="91.00" routeLength="1015.10" waitSteps="0" timeLoss="14.84" rerouteNo="0" devices="tripinfo_up_33" vType="typeNS" speedFactor="1.00" vaporized=""/>
    <tripinfo id="left_21" depart="116.00" departLane="52o_0" departPos="5.10" departSpeed="0.00" departDelay="2.00" arrival="287.00" arrivalLane="51i_0" arrivalPos="10.00" arrivalSpeed="11.54" duration="171.00" routeLength="1015.10" waitSteps="63" timeLoss="94.36" rerouteNo="0" devices="tripinfo_left_21" vType="typeWE" speedFactor="1.00" vaporized=""/>
    <tripinfo id="right_23" depart="125.00" departLane="51o_0" departPos="5.10" departSpeed="0.00" departDelay="0.00" arrival="287.00" arrivalLane="52i_0" arrivalPos="10.00" arrivalSpeed="11.52" duration="162.00" routeLength="1015.10" waitSteps="54" timeLoss="85.38" rerouteNo="0" devices="tripinfo_right_23" vType="typeWE" speedFactor="1.00" vaporized=""/>
    <tripinfo id="down_38" depart="222.00" departLane="54o_0" departPos="5.10" departSpeed="0.00" departDelay="0.00" arrival="315.00" arrivalLane="53i_0" arrivalPos="10.00" arrivalSpeed="11.65" duration="93.00" routeLength="1015.10" waitSteps="0" timeLoss="16.91" rerouteNo="0" devices="tripinfo_down_38" vType="typeNS" speedFactor="1.00" vaporized=""/>
    <tripinfo id="left_27" depart="148.00" departLane="52o_0" departPos="5.10" departSpeed="0.00" departDelay="0.00" arrival="327.00" arrivalLane="51i_0" arrivalPos="10.00" arrivalSpeed="11.80" duration="179.00" routeLength="1015.10" waitSteps="71" timeLoss="102.43" rerouteNo="0" devices="tripinfo_left_27" vType="typeWE" speedFactor="1.00" vaporized=""/>
    <tripinfo id="right_35" depart="201.00" departLane="51o_0" departPos="5.10" departSpeed="0.00" departDelay="0.00" arrival="328.00" arrivalLane="52i_0" arrivalPos="10.00" arrivalSpeed="11.55" duration="127.00" routeLength="1015.10" waitSteps="24" timeLoss="50.37" rerouteNo="0" devices="tripinfo_right_35" vType="typeWE" speedFactor="1.00" vaporized=""/>
    <tripinfo id="down_41" depart="239.00" departLane="54o_0" departPos="5.10" departSpeed="0.00" departDelay="0.00" arrival="331.00" arrivalLane="53i_0" arrivalPos="10.00" arrivalSpeed="11.64" duration="92.00" routeLength="1015.10" waitSteps="0" timeLoss="15.74" rerouteNo="0" devices="tripinfo_down_41" vType="typeNS" speedFactor="1.00" vaporized=""/>
    <tripinfo id="up_40" depart="229.00" departLane="53o_0" departPos="5.10" departSpeed="0.00" departDelay="0.00" arrival="334.00" arrivalLane="54i_0" arrivalPos="10.00" arrivalSpeed="11.40" duration="105.00" routeLength="1015.10" waitSteps="2" timeLoss="29.23" rerouteNo="0" devices="tripinfo_up_40" vType="typeNS" speedFactor="1.00" vaporized=""/>
    <tripinfo id="down_44" depart="244.00" departLane="54o_0" departPos="5.10" departSpeed="0.00" departDelay="0.00" arrival="336.00" arrivalLane="53i_0" arrivalPos="10.00" arrivalSpeed="11.67" duration="92.00" routeLength="1015.10" waitSteps="0" timeLoss="15.39" rerouteNo="0" devices="tripinfo_down_44" vType="typeNS" speedFactor="1.00" vaporized=""/>
    <tripinfo id="left_30" depart="161.00" departLane="52o_0" departPos="5.10" departSpeed="0.00" departDelay="0.00" arrival="358.00" arrivalLane="51i_0" arrivalPos="10.00" arrivalSpeed="11.57" duration="197.00" routeLength="1015.10" waitSteps="82" timeLoss="121.10" rerouteNo="0" devices="tripinfo_left_30" vType="typeWE" speedFactor="1.00" vaporized=""/>
    <tripinfo id="right_37" depart="217.00" departLane="51o_0" departPos="5.10" departSpeed="0.00" departDelay="0.00" arrival="358.00" arrivalLane="52i_0" arrivalPos="10.00" arrivalSpeed="11.68" duration="141.00" routeLength="1015.10" waitSteps="35" timeLoss="64.95" rerouteNo="0" devices="tripinfo_right_37" vType="typeWE" speedFactor="1.00" vaporized=""/>
    <tripinfo id="up_46" depart="268.00" departLane="53o_0" departPos="5.10" departSpeed="0.00" departDelay="0.00" arrival="359.00" arrivalLane="54i_0" arrivalPos="10.00" arrivalSpeed="11.69" duration="91.00" routeLength="1015.10" waitSteps="0" timeLoss="14.82" rerouteNo="0" devices="tripinfo_up_46" vType="typeNS" speedFactor="1.00" vaporized=""/>
    <tripinfo id="left_31" depart="166.00" departLane="52o_0" departPos="5.10" departSpeed="0.00" departDelay="0.00" arrival="373.00" arrivalLane="51i_0" arrivalPos="10.00" arrivalSpeed="11.62" duration="207.00" routeLength="1015.10" waitSteps="88" timeLoss="130.81" rerouteNo="0" devices="tripinfo_left_31" vType="typeWE" speedFactor="1.00" vaporized=""/>
    <tripinfo id="right_39" depart="225.00" departLane="51o_0" departPos="5.10" departSpeed="0.00" departDelay="0.00" arrival="373.00" arrivalLane="52i_0" arrivalPos="10.00" arrivalSpeed="11.81" duration="148.00" routeLength="1015.10" waitSteps="36" timeLoss="71.85" rerouteNo="0" devices="tripinfo_right_39" vType="typeWE" speedFactor="1.00" vaporized=""/>
    <tripinfo id="down_45" depart="264.00" departLane="54o_0" departPos="5.10" departSpeed="0.00" departDelay="0.00" arrival="383.00" arrivalLane="53i_0" arrivalPos="10.00" arrivalSpeed="11.49" duration="119.00" routeLength="1015.10" waitSteps="15" timeLoss="43.01" rerouteNo="0" devices="tripinfo_down_45" vType="typeNS" speedFactor="1.00" vaporized=""/>
    <tripinfo id="left_34" depart="199.00" departLane="52o_0" departPos="5.10" departSpeed="0.00" departDelay="0.00" arrival="390.00" arrivalLane="51i_0" arrivalPos="10.00" arrivalSpeed="11.53" duration="191.00" routeLength="1015.10" waitSteps="69" timeLoss="114.33" rerouteNo="0" devices="tripinfo_left_34" vType="typeWE" speedFactor="1.00" vaporized=""/>
    <tripinfo id="right_42" depart="240.00" departLane="51o_0" departPos="5.10" departSpeed="0.00" departDelay="0.00" arrival="390.00" arrivalLane="52i_0" arrivalPos="10.00" arrivalSpeed="11.71" duration="150.00" routeLength="1015.10" waitSteps="37" timeLoss="73.36" rerouteNo="0" devices="tripinfo_right_42" vType="typeWE" speedFactor="1.00" vaporized=""/>
    <tripinfo id="left_36" depart="204.00" departLane="52o_0" departPos="5.10" departSpeed="0.00" departDelay="2.00" arrival="392.00" arrivalLane="51i_0" arrivalPos="10.00" arrivalSpeed="11.34" duration="188.00" routeLength="1015.10" waitSteps="65" timeLoss="111.93" rerouteNo="0" devices="tripinfo_left_36" vType="typeWE" speedFactor="1.00" vaporized=""/>
    <tripinfo id="right_49" depart="282.00" departLane="51o_0" departPos="5.10" departSpeed="0.00" departDelay="0.00" arrival="392.00" arrivalLane="52i_0" arrivalPos="10.00" arrivalSpeed="7.93" duration="110.00" routeLength="1015.10" waitSteps="7" timeLoss="33.98" rerouteNo="0" devices="tripinfo_right_49" vType="typeWE" speedFactor="1.00" vaporized=""/>
    <tripinfo id="left_43" depart="244.00" departLane="52o_0" departPos="5.10" departSpeed="0.00" departDelay="0.00" arrival="394.00" arrivalLane="51i_0" arrivalPos="10.00" arrivalSpeed="11.00" duration="150.00" routeLength="1015.10" waitSteps="33" timeLoss="73.92" rerouteNo="0" devices="tripinfo_left_43" vType="typeWE" speedFactor="1.00" vaporized=""/>
    <tripinfo id="left_48" depart="281.00" departLane="52o_0" departPos="5.10" departSpeed="0.00" departDelay="0.00" arrival="396.00" arrivalLane="51i_0" arrivalPos="10.00" arrivalSpeed="10.99" duration="115.00" routeLength="1015.10" waitSteps="7" timeLoss="38.99" rerouteNo="0" devices="tripinfo_left_48" vType="typeWE" speedFactor="1.00" vaporized=""/>
    <tripinfo id="right_56" depart="318.00" departLane="51o_0" departPos="5.10" departSpeed="0.00" departDelay="0.00" arrival="411.00" arrivalLane="52i_0" arrivalPos="10.00" arrivalSpeed="11.34" duration="93.00" routeLength="1015.10" waitSteps="0" timeLoss="16.74" rerouteNo="0" devices="tripinfo_right_56" vType="typeWE" speedFactor="1.00" vaporized=""/>
    <tripinfo id="up_47" depart="279.00" departLane="53o_0" departPos="5.10" departSpeed="0.00" departDelay="0.00" arrival="411.00" arrivalLane="54i_0" arrivalPos="10.00" arrivalSpeed="11.61" duration="132.00" routeLength="1015.10" waitSteps="29" timeLoss="56.11" rerouteNo="0" devices="tripinfo_up_47" vType="typeNS" speedFactor="1.00" vaporized=""/>
    <tripinfo id="left_59" depart="324.00" departLane="52o_0" departPos="5.10" departSpeed="0.00" departDelay="0.00" arrival="414.00" arrivalLane="51i_0" arrivalPos="10.00" arrivalSpeed="11.78" duration="90.00" routeLength="1015.10" waitSteps="0" timeLoss="14.02" rerouteNo="0" devices="tripinfo_left_59" vType="typeWE" speedFactor="1.00" vaporized=""/>
    <tripinfo id="down_52" depart="306.00" departLane="54o_0" departPos="5.10" departSpeed="0.00" departDelay="0.00" arrival="432.00" arrivalLane="53i_0" arrivalPos="10.00" arrivalSpeed="11.34" duration="126.00" routeLength="1015.10" waitSteps="23" timeLoss="50.22" rerouteNo="0" devices="tripinfo_down_52" vType="typeNS" speedFactor="1.00" vaporized=""/>
    <tripinfo id="left_63" depart="336.00" departLane="52o_0" departPos="5.10" departSpeed="0.00" departDelay="0.00" arrival="439.00" arrivalLane="51i_0" arrivalPos="10.00" arrivalSpeed="11.71" duration="103.00" routeLength="1015.10" waitSteps="3" timeLoss="26.98" rerouteNo="0" devices="tripinfo_left_63" vType="typeWE" speedFactor="1.00" vaporized=""/>
    <tripinfo id="left_65" depart="345.00" departLane="52o_0" departPos="5.10" departSpeed="0.00" departDelay="0.00" arrival="441.00" arrivalLane="51i_0" arrivalPos="10.00" arrivalSpeed="10.41" duration="96.00" routeLength="1015.10" waitSteps="0" timeLoss="20.00" rerouteNo="0" devices="tripinfo_left_65" vType="typeWE" speedFactor="1.00" vaporized=""/>
    <tripinfo id="up_50" depart="287.00" departLane="53o_0" departPos="5.10" departSpeed="0.00" departDelay="0.00" arrival="453.00" arrivalLane="54i_0" arrivalPos="10.00" arrivalSpeed="11.55" duration="166.00" routeLength="1015.10" waitSteps="59" timeLoss="89.93" rerouteNo="0" devices="tripinfo_up_50" vType="typeNS" speedFactor="1.00" vaporized=""/>
    <tripinfo id="left_67" depart="352.00" departLane="52o_0" departPos="5.10" departSpeed="0.00" departDelay="0.00" arrival="460.00" arrivalLane="51i_0" arrivalPos="10.00" arrivalSpeed="11.71" duration="108.00" routeLength="1015.10" waitSteps="5" timeLoss="31.55" rerouteNo="0" devices="tripinfo_left_67" vType="typeWE" speedFactor="1.00" vaporized=""/>
    <tripinfo id="right_72" depart="381.00" departLane="51o_0" departPos="5.10" departSpeed="0.00" departDelay="0.00" arrival="474.00" arrivalLane="52i_0" arrivalPos="10.00" arrivalSpeed="11.56" duration="93.00" routeLength="1015.10" waitSteps="0" timeLoss="16.39" rerouteNo="0" devices="tripinfo_right_72" vType="typeWE" speedFactor="1.00" vaporized=""/>
    <tripinfo id="down_53" depart="311.00" departLane="54o_0" departPos="5.10" departSpeed="0.00" departDelay="3.00" arrival="476.00" arrivalLane="53i_0" arrivalPos="10.00" arrivalSpeed="11.53" duration="165.00" routeLength="1015.10" waitSteps="53" timeLoss="88.61" rerouteNo="0" devices="tripinfo_down_53" vType="typeNS" speedFactor="1.00" vaporized=""/>
    <tripinfo id="right_75" depart="386.00" departLane="51o_0" departPos="5.10" departSpeed="0.00" departDelay="3.00" arrival="477.00" arrivalLane="52i_0" arrivalPos="10.00" arrivalSpeed="11.67" duration="91.00" routeLength="1015.10" waitSteps="0" timeLoss="14.69" rerouteNo="0" devices="tripinfo_right_75" vType="typeWE" speedFactor="1.00" vaporized=""/>
    <tripinfo id="left_71" depart="375.00" departLane="52o_0" departPos="5.10" departSpeed="0.00" departDelay="0.00" arrival="481.00" arrivalLane="51i_0" arrivalPos="10.00" arrivalSpeed="11.27" duration="106.00" routeLength="1015.10" waitSteps="4" timeLoss="29.67" rerouteNo="0" devices="tripinfo_left_71" vType="typeWE" speedFactor="1.00" vaporized=""/>
    <tripinfo id="left_73" depart="381.00" departLane="52o_0" departPos="5.10" departSpeed="0.00" departDelay="0.00" arrival="483.00" arrivalLane="51i_0" arrivalPos="10.00" arrivalSpeed="11.14" duration="102.00" routeLength="1015.10" waitSteps="0" timeLoss="25.94" rerouteNo="0" devices="tripinfo_left_73" vType="typeWE" speedFactor="1.00" vaporized=""/>
    <tripinfo id="up_51" depart="304.00" departLane="53o_0" departPos="5.10" departSpeed="0.00" departDelay="0.00" arrival="495.00" arrivalLane="54i_0" arrivalPos="10.00" arrivalSpeed="11.49" duration="191.00" routeLength="1015.10" waitSteps="74" timeLoss="114.35" rerouteNo="0" devices="tripinfo_up_51" vType="typeNS" speedFactor="1.00" vaporized=""/>
    <tripinfo id="right_78" depart="407.00" departLane="51o_0" departPos="5.10" departSpeed="0.00" departDelay="0.00" arrival="498.00" arrivalLane="52i_0" arrivalPos="10.00" arrivalSpeed="11.29" duration="91.00" routeLength="1015.10" waitSteps="0" timeLoss="14.60" rerouteNo="0" devices="tripinfo_right_78" vType="typeWE" speedFactor="1.00" vaporized=""/>
    <tripinfo id="down_55" depart="316.00" departLane="54o_0" departPos="5.10" departSpeed="0.00" departDelay="5.00" arrival="519.00" arrivalLane="53i_0" arrivalPos="10.00" arrivalSpeed="11.57" duration="203.00" routeLength="1015.10" waitSteps="87" timeLoss="126.82" rerouteNo="0" devices="tripinfo_down_55" vType="typeNS" speedFactor="1.00" vaporized=""/>
    <tripinfo id="right_81" depart="416.00" departLane="51o_0" departPos="5.10" departSpeed="0.00" departDelay="0.00" arrival="526.00" arrivalLane="52i_0" arrivalPos="10.00" arrivalSpeed="11.80" duration="110.00" routeLength="1015.10" waitSteps="8" timeLoss="33.69" rerouteNo="0" devices="tripinfo_right_81" vType="typeWE" speedFactor="1.00" vaporized=""/>
    <tripinfo id="right_84" depart="435.00" departLane="51o_0" departPos="5.10" departSpeed="0.00" departDelay="0.00" arrival="528.00" arrivalLane="52i_0" arrivalPos="10.00" arrivalSpeed="9.84" duration="93.00" routeLength="1015.10" waitSteps="0" timeLoss="16.94" rerouteNo="0" devices="tripinfo_right_84" vType="typeWE" speedFactor="1.00" vaporized=""/>
    <tripinfo id="down_57" depart="322.00" departLane="54o_0" departPos="5.10" departSpeed="0.00" departDelay="3.00" arrival="560.00" arrivalLane="53i_0" arrivalPos="10.00" arrivalSpeed="11.06" duration="238.00" routeLength="1015.10" waitSteps="114" timeLoss="161.83" rerouteNo="0" devices="tripinfo_down_57" vType="typeNS" speedFactor="1.00" vaporized=""/>
    <tripinfo id="up_54" depart="310.00" departLane="53o_0" departPos="5.10" departSpeed="0.00" departDelay="0.00" arrival="560.00" arrivalLane="54i_0" arrivalPos="10.00" arrivalSpeed="11.64" duration="250.00" routeLength="1015.10" waitSteps="128" timeLoss="173.74" rerouteNo="0" devices="tripinfo_up_54" vType="typeNS" speedFactor="1.00" vaporized=""/>
    <tripinfo id="right_88" depart="470.00" departLane="51o_0" departPos="5.10" departSpeed="0.00" departDelay="0.00" arrival="562.00" arrivalLane="52i_0" arrivalPos="10.00" arrivalSpeed="11.75" duration="92.00" routeLength="1015.10" waitSteps="0" timeLoss="15.47" rerouteNo="0" devices="tripinfo_right_88" vType="typeWE" speedFactor="1.00" vaporized=""/>
    <tripinfo id="up_58" depart="321.00" departLane="53o_0" departPos="5.10" departSpeed="0.00" departDelay="0.00" arrival="576.00" arrivalLane="54i_0" arrivalPos="10.00" arrivalSpeed="11.43" duration="255.00" routeLength="1015.10" waitSteps="131" timeLoss="179.01" rerouteNo="0" devices="tripinfo_up_58" vType="typeNS" speedFactor="1.00" vaporized=""/>
    <tripinfo id="down_61" depart="327.00" departLane="54o_0" departPos="5.10" departSpeed="0.00" departDelay="2.00" arrival="577.00" arrivalLane="53i_0" arrivalPos="10.00" arrivalSpeed="11.16" duration="250.00" routeLength="1015.10" waitSteps="118" timeLoss="173.44" rerouteNo="0" devices="tripinfo_down_61" vType="typeNS" speedFactor="1.00" vaporized=""/>
    <tripinfo id="down_64" depart="337.00" departLane="54o_0" departPos="5.10" departSpeed="0.00" departDelay="0.00" arrival="579.00" arrivalLane="53i_0" arrivalPos="10.00" arrivalSpeed="9.12" duration="242.00" routeLength="1015.10" waitSteps="104" timeLoss="165.82" rerouteNo="0" devices="tripinfo_down_64" vType="typeNS" speedFactor="1.00" vaporized=""/>
    <tripinfo id="up_60" depart="326.00" departLane="53o_0" departPos="5.10" departSpeed="0.00" departDelay="2.00" arrival="580.00" arrivalLane="54i_0" arrivalPos="10.00" arrivalSpeed="11.32" duration="254.00" routeLength="1015.10" waitSteps="123" timeLoss="177.42" rerouteNo="0" devices="tripinfo_up_60" vType="typeNS" speedFactor="1.00" vaporized=""/>
    <tripinfo id="down_66" depart="350.00" departLane="54o_0" departPos="5.10" departSpeed="0.00" departDelay="0.00" arrival="581.00" arrivalLane="53i_0" arrivalPos="10.00" arrivalSpeed="10.01" duration="231.00" routeLength="1015.10" waitSteps="99" timeLoss="154.81" rerouteNo="0" devices="tripinfo_down_66" vType="typeNS" speedFactor="1.00" vaporized=""/>
    <tripinfo id="up_62" depart="332.00" departLane="53o_0" departPos="5.10" departSpeed="0.00" departDelay="0.00" arrival="582.00" arrivalLane="54i_0" arrivalPos="10.00" arrivalSpeed="10.41" duration="250.00" routeLength="1015.10" waitSteps="117" timeLoss="173.76" rerouteNo="0" devices="tripinfo_up_62" vType="typeNS" speedFactor="1.00" vaporized=""/>
    <tripinfo id="down_68" depart="360.00" departLane="54o_0" departPos="5.10" departSpeed="0.00" departDelay="0.00" arrival="583.00" arrivalLane="53i_0" arrivalPos="10.00" arrivalSpeed="9.74" duration="223.00" routeLength="1015.10" waitSteps="90" timeLoss="146.77" rerouteNo="0" devices="tripinfo_down_68" vType="typeNS" speedFactor="1.00" vaporized=""/>
    <tripinfo id="up_69" depart="369.00" departLane="53o_0" departPos="5.10" departSpeed="0.00" departDelay="0.00" arrival="584.00" arrivalLane="54i_0" arrivalPos="10.00" arrivalSpeed="10.33" duration="215.00" routeLength="1015.10" waitSteps="90" timeLoss="138.83" rerouteNo="0" devices="tripinfo_up_69" vType="typeNS" speedFactor="1.00" vaporized=""/>
    <tripinfo id="down_70" depart="373.00" departLane="54o_0" departPos="5.10" departSpeed="0.00" departDelay="0.00" arrival="585.00" arrivalLane="53i_0" arrivalPos="10.00" arrivalSpeed="9.75" duration="212.00" routeLength="1015.10" waitSteps="79" timeLoss="135.86" rerouteNo="0" devices="tripinfo_down_70" vType="typeNS" speedFactor="1.00" vaporized=""/>
    <tripinfo id="up_76" depart="383.00" departLane="53o_0" departPos="5.10" departSpeed="0.00" departDelay="0.00" arrival="586.00" arrivalLane="54i_0" arrivalPos="10.00" arrivalSpeed="9.44" duration="203.00" routeLength="1015.10" waitSteps="79" timeLoss="126.84" rerouteNo="0" devices="tripinfo_up_76" vType="typeNS" speedFactor="1.00" vaporized=""/>
    <tripinfo id="left_94" depart="500.00" departLane="52o_0" departPos="5.10" departSpeed="0.00" departDelay="0.00" arrival="592.00" arrivalLane="51i_0" arrivalPos="10.00" arrivalSpeed="11.76" duration="92.00" routeLength="1015.10" waitSteps="0" timeLoss="15.73" rerouteNo="0" devices="tripinfo_left_94" vType="typeWE" speedFactor="1.00" vaporized=""/>